#++++++++++++++++++++++++++++++++++++++++++++++++++++++++++++++++++++++++++++++++++++++++++++++++++++++++++++++++++++
#
#   IPW-3 Ice Shape DATA SUBMITTAL FORM for Test Case NACA0012_AE3932, May 18th 2026
#
#       NOMENCLATURE:
#             X_ICED [m]:  X-coordinate of the iced surface
#             Y_ICED [m]:  Y-coordinate of the iced surface
#             Z_ICED [m]:  Z-coordinate of the iced surface
#
#                XXmm:  Roughness height used for the case, in mm.
#                       In the zone name, use the format KS_XXmm.
#                       For example, if k_s = 1.5 mm, use KS_1p5mm. 
#                       For Variable roughness, use KS_VAR
#
#    FLOW CONDITIONS:
#                                   AOA: 4.0 deg
#                           Mach Number: 0.3151 [-]
#       Mean aerodynamic chord (M.A.C.): 0.5334 [m]
#                       Reynolds Number: 3.9795 million (based on MAC)
#                       Freestream Temp: 267.55 [K]
#                        Reference area: 0.97548 [m2]
#               Moment Reference Center: 0.13335, 0, 0 [m] (X, Y, Z)
#
#    ICING CONDITIONS:
#                           Icing Time: 420 [s]
#                                  LWC: 0.55 [g/m3]
#                                  MVD: 20 [μm]
#
#              NOTES: 1. Please use at least 5 decimal places in the numerical values
#                     2. If data are NOT provided, please fill data fields with a numerical value of "-999" 
#
#++++++++++++++++++++++++++++++++++++++++++++++++++++++++++++++++++++++++++++++++++++++++++++++++++++++++++++++++++++

AUXDATA NUM_LAYERS  = "insert the number of total ice layers"
                                              
VARIABLES = "X_ICED" "Y_ICED" "Z_ICED"

ZONE T="SLICE_Y_0p9144_BINS15_KS_1p0668mm_SINGLE_LAYER"
5.324724317E-01 9.144000411E-01 -2.723562904E-02
5.324724317E-01 9.144000411E-01 -2.723563090E-02
5.324661136E-01 9.144000411E-01 -2.732502110E-02
5.324599147E-01 9.144000411E-01 -2.741441317E-02
5.324599147E-01 9.144000411E-01 -2.741441317E-02
5.324535966E-01 9.144000411E-01 -2.750380710E-02
5.324535966E-01 9.144000411E-01 -2.750380710E-02
5.324473977E-01 9.144000411E-01 -2.759319916E-02
5.324473977E-01 9.144000411E-01 -2.759319916E-02
5.324410796E-01 9.144000411E-01 -2.768259309E-02
5.324410796E-01 9.144000411E-01 -2.768259309E-02
5.324348807E-01 9.144000411E-01 -2.777198330E-02
5.324348807E-01 9.144000411E-01 -2.777198516E-02
5.324285626E-01 9.144000411E-01 -2.786137722E-02
5.324285626E-01 9.144000411E-01 -2.786137722E-02
5.324223638E-01 9.144000411E-01 -2.795077115E-02
5.324223638E-01 9.144000411E-01 -2.795077115E-02
5.324161649E-01 9.144000411E-01 -2.804016322E-02
5.324161649E-01 9.144000411E-01 -2.804016508E-02
5.324098468E-01 9.144000411E-01 -2.812955715E-02
5.324098468E-01 9.144000411E-01 -2.812955715E-02
5.324036479E-01 9.144000411E-01 -2.821895108E-02
5.324036479E-01 9.144000411E-01 -2.821895108E-02
5.323973894E-01 9.144000411E-01 -2.830834314E-02
5.323973894E-01 9.144000411E-01 -2.830834314E-02
5.323911309E-01 9.144000411E-01 -2.839773707E-02
5.323911309E-01 9.144000411E-01 -2.839773707E-02
5.323848724E-01 9.144000411E-01 -2.848713100E-02
5.323848724E-01 9.144000411E-01 -2.848713100E-02
5.323786139E-01 9.144000411E-01 -2.857652307E-02
5.323786139E-01 9.144000411E-01 -2.857652307E-02
5.321252346E-01 9.144000411E-01 -2.859416232E-02
5.321252346E-01 9.144000411E-01 -2.859416232E-02
5.317198038E-01 9.144000411E-01 -2.862234041E-02
5.317198038E-01 9.144000411E-01 -2.862234041E-02
5.310711265E-01 9.144000411E-01 -2.866728231E-02
5.310711265E-01 9.144000411E-01 -2.866728231E-02
5.300332904E-01 9.144000411E-01 -2.873908356E-02
5.300332308E-01 9.144000411E-01 -2.873908356E-02
5.283725858E-01 9.144000411E-01 -2.885312960E-02
5.283725858E-01 9.144000411E-01 -2.885313146E-02
5.258042216E-01 9.144000411E-01 -2.902792022E-02
5.258042216E-01 9.144000411E-01 -2.902792022E-02
5.232357979E-01 9.144000411E-01 -2.920055576E-02
5.232357383E-01 9.144000411E-01 -2.920055762E-02
5.206671953E-01 9.144000411E-01 -2.937123552E-02
5.206671357E-01 9.144000411E-01 -2.937123738E-02
5.180984139E-01 9.144000411E-01 -2.953988500E-02
5.180984139E-01 9.144000411E-01 -2.953988500E-02
5.155295134E-01 9.144000411E-01 -2.970653772E-02
5.155295134E-01 9.144000411E-01 -2.970653959E-02
5.129605532E-01 9.144000411E-01 -2.987123094E-02
5.129605532E-01 9.144000411E-01 -2.987123094E-02
5.103914738E-01 9.144000411E-01 -3.003403731E-02
5.103914738E-01 9.144000411E-01 -3.003403731E-02
5.078222156E-01 9.144000411E-01 -3.019481897E-02
5.078222156E-01 9.144000411E-01 -3.019481897E-02
5.052528977E-01 9.144000411E-01 -3.035375476E-02
5.052528381E-01 9.144000411E-01 -3.035375662E-02
5.026834011E-01 9.144000411E-01 -3.051077947E-02
5.026834011E-01 9.144000411E-01 -3.051078133E-02
5.001137853E-01 9.144000411E-01 -3.066598624E-02
5.001137853E-01 9.144000411E-01 -3.066598624E-02
4.975441396E-01 9.144000411E-01 -3.081921488E-02
4.975441098E-01 9.144000411E-01 -3.081921488E-02
4.949743152E-01 9.144000411E-01 -3.097065352E-02
4.949743152E-01 9.144000411E-01 -3.097065538E-02
4.924044013E-01 9.144000411E-01 -3.112021647E-02
4.924044013E-01 9.144000411E-01 -3.112021647E-02
4.898343682E-01 9.144000411E-01 -3.126795590E-02
4.898343384E-01 9.144000411E-01 -3.126795590E-02
4.872642457E-01 9.144000411E-01 -3.141391277E-02
4.872642457E-01 9.144000411E-01 -3.141391277E-02
4.846940339E-01 9.144000411E-01 -3.155808151E-02
4.846940339E-01 9.144000411E-01 -3.155808523E-02
4.821236730E-01 9.144000411E-01 -3.170043230E-02
4.821236730E-01 9.144000411E-01 -3.170043230E-02
4.795532823E-01 9.144000411E-01 -3.184100613E-02
4.795532525E-01 9.144000411E-01 -3.184100613E-02
4.769827724E-01 9.144000411E-01 -3.197983652E-02
4.769827724E-01 9.144000411E-01 -3.197983652E-02
4.744121432E-01 9.144000411E-01 -3.211691976E-02
4.744121432E-01 9.144000411E-01 -3.211691976E-02
4.718414545E-01 9.144000411E-01 -3.225226328E-02
4.718414247E-01 9.144000411E-01 -3.225226328E-02
4.692706466E-01 9.144000411E-01 -3.238588572E-02
4.692706168E-01 9.144000411E-01 -3.238588944E-02
4.666997790E-01 9.144000411E-01 -3.251778334E-02
4.666997790E-01 9.144000411E-01 -3.251778334E-02
4.641288221E-01 9.144000411E-01 -3.264794499E-02
4.641287923E-01 9.144000411E-01 -3.264794499E-02
4.615577459E-01 9.144000411E-01 -3.277641907E-02
4.615577459E-01 9.144000411E-01 -3.277641907E-02
4.589866102E-01 9.144000411E-01 -3.290320560E-02
4.589866102E-01 9.144000411E-01 -3.290320560E-02
4.564153850E-01 9.144000411E-01 -3.302834928E-02
4.564153850E-01 9.144000411E-01 -3.302835301E-02
4.538441002E-01 9.144000411E-01 -3.315179795E-02
4.538441002E-01 9.144000411E-01 -3.315179795E-02
4.512726963E-01 9.144000411E-01 -3.327352926E-02
4.512726665E-01 9.144000411E-01 -3.327353299E-02
4.487012327E-01 9.144000411E-01 -3.339364380E-02
4.487012327E-01 9.144000411E-01 -3.339364380E-02
4.461297095E-01 9.144000411E-01 -3.351215646E-02
4.461297095E-01 9.144000411E-01 -3.351215646E-02
4.435580671E-01 9.144000411E-01 -3.362889215E-02
4.435580671E-01 9.144000411E-01 -3.362889215E-02
4.409863949E-01 9.144000411E-01 -3.374405950E-02
4.409863949E-01 9.144000411E-01 -3.374406323E-02
4.384146333E-01 9.144000411E-01 -3.385760635E-02
4.384146333E-01 9.144000411E-01 -3.385760635E-02
4.358428121E-01 9.144000411E-01 -3.396944329E-02
4.358428121E-01 9.144000411E-01 -3.396944329E-02
4.332709014E-01 9.144000411E-01 -3.407974541E-02
4.332709014E-01 9.144000411E-01 -3.407974541E-02
4.306989312E-01 9.144000411E-01 -3.418831155E-02
4.306989014E-01 9.144000411E-01 -3.418831155E-02
4.281269014E-01 9.144000411E-01 -3.429534286E-02
4.281269014E-01 9.144000411E-01 -3.429534286E-02
4.255547822E-01 9.144000411E-01 -3.440069035E-02
4.255547822E-01 9.144000411E-01 -3.440069035E-02
4.229826331E-01 9.144000411E-01 -3.450443968E-02
4.229826033E-01 9.144000411E-01 -3.450444341E-02
4.204103649E-01 9.144000411E-01 -3.460656852E-02
4.204103649E-01 9.144000411E-01 -3.460656852E-02
4.178380668E-01 9.144000411E-01 -3.470707312E-02
4.178380668E-01 9.144000411E-01 -3.470707312E-02
4.152657092E-01 9.144000411E-01 -3.480595350E-02
4.152657092E-01 9.144000411E-01 -3.480595350E-02
4.126932919E-01 9.144000411E-01 -3.490323201E-02
4.126932919E-01 9.144000411E-01 -3.490323201E-02
4.101208150E-01 9.144000411E-01 -3.499885648E-02
4.101207852E-01 9.144000411E-01 -3.499885648E-02
4.075482488E-01 9.144000411E-01 -3.509290144E-02
4.075482488E-01 9.144000411E-01 -3.509290144E-02
4.049756527E-01 9.144000411E-01 -3.518524766E-02
4.049756527E-01 9.144000411E-01 -3.518524766E-02
4.024029970E-01 9.144000411E-01 -3.527611494E-02
4.024029970E-01 9.144000411E-01 -3.527611494E-02
3.998302519E-01 9.144000411E-01 -3.536515683E-02
3.998302519E-01 9.144000411E-01 -3.536515683E-02
3.972575068E-01 9.144000411E-01 -3.545270115E-02
3.972574770E-01 9.144000411E-01 -3.545270115E-02
3.946846724E-01 9.144000411E-01 -3.553854302E-02
3.946846724E-01 9.144000411E-01 -3.553854302E-02
3.921117783E-01 9.144000411E-01 -3.562274203E-02
3.921117485E-01 9.144000411E-01 -3.562274575E-02
3.895388544E-01 9.144000411E-01 -3.570540622E-02
3.895388246E-01 9.144000411E-01 -3.570540622E-02
3.869658411E-01 9.144000411E-01 -3.578623384E-02
3.869658411E-01 9.144000411E-01 -3.578623384E-02
3.843928277E-01 9.144000411E-01 -3.586551920E-02
3.843927979E-01 9.144000411E-01 -3.586551920E-02
3.818196952E-01 9.144000411E-01 -3.594313562E-02
3.818196952E-01 9.144000411E-01 -3.594313562E-02
3.792465925E-01 9.144000411E-01 -3.601899743E-02
3.792465627E-01 9.144000411E-01 -3.601899743E-02
3.766733706E-01 9.144000411E-01 -3.609328717E-02
3.766733706E-01 9.144000411E-01 -3.609329090E-02
3.741001189E-01 9.144000411E-01 -3.616581857E-02
3.741001189E-01 9.144000411E-01 -3.616581857E-02
3.715268672E-01 9.144000411E-01 -3.623662144E-02
3.715268373E-01 9.144000411E-01 -3.623662144E-02
3.689535260E-01 9.144000411E-01 -3.630581871E-02
3.689534962E-01 9.144000411E-01 -3.630581871E-02
3.663801253E-01 9.144000411E-01 -3.637322411E-02
3.663801253E-01 9.144000411E-01 -3.637322411E-02
3.638066947E-01 9.144000411E-01 -3.643886000E-02
3.638066947E-01 9.144000411E-01 -3.643886000E-02
3.612332344E-01 9.144000411E-01 -3.650286049E-02
3.612332046E-01 9.144000411E-01 -3.650286049E-02
3.586597145E-01 9.144000411E-01 -3.656505793E-02
3.586596847E-01 9.144000411E-01 -3.656505793E-02
3.560861945E-01 9.144000411E-01 -3.662541881E-02
3.560861647E-01 9.144000411E-01 -3.662541881E-02
3.535125852E-01 9.144000411E-01 -3.668409213E-02
3.535125852E-01 9.144000411E-01 -3.668409213E-02
3.509389460E-01 9.144000411E-01 -3.674104065E-02
3.509389460E-01 9.144000411E-01 -3.674104065E-02
3.483652771E-01 9.144000411E-01 -3.679606318E-02
3.483652771E-01 9.144000411E-01 -3.679606318E-02
3.457915783E-01 9.144000411E-01 -3.684928641E-02
3.457915485E-01 9.144000411E-01 -3.684928641E-02
3.432177901E-01 9.144000411E-01 -3.690067679E-02
3.432177603E-01 9.144000411E-01 -3.690067679E-02
3.406440020E-01 9.144000411E-01 -3.695019707E-02
3.406440020E-01 9.144000411E-01 -3.695019707E-02
3.380701840E-01 9.144000411E-01 -3.699787706E-02
3.380701840E-01 9.144000411E-01 -3.699787706E-02
3.354963362E-01 9.144000411E-01 -3.704361618E-02
3.354963064E-01 9.144000411E-01 -3.704361618E-02
3.329224586E-01 9.144000411E-01 -3.708750755E-02
3.329224288E-01 9.144000411E-01 -3.708750755E-02
3.303485215E-01 9.144000411E-01 -3.712940589E-02
3.303485215E-01 9.144000411E-01 -3.712940589E-02
3.277745545E-01 9.144000411E-01 -3.716942295E-02
3.277745545E-01 9.144000411E-01 -3.716942295E-02
3.252005875E-01 9.144000411E-01 -3.720741346E-02
3.252005577E-01 9.144000411E-01 -3.720741346E-02
3.226265907E-01 9.144000411E-01 -3.724347055E-02
3.226265609E-01 9.144000411E-01 -3.724347427E-02
3.200525343E-01 9.144000411E-01 -3.727747127E-02
3.200525343E-01 9.144000411E-01 -3.727747127E-02
3.174784482E-01 9.144000411E-01 -3.730948269E-02
3.174784482E-01 9.144000411E-01 -3.730948269E-02
3.149043918E-01 9.144000411E-01 -3.733939677E-02
3.149043620E-01 9.144000411E-01 -3.733939677E-02
3.123302758E-01 9.144000411E-01 -3.736728057E-02
3.123302758E-01 9.144000411E-01 -3.736728057E-02
3.097561300E-01 9.144000411E-01 -3.739301115E-02
3.097561300E-01 9.144000411E-01 -3.739301115E-02
3.071819842E-01 9.144000411E-01 -3.741667047E-02
3.071819842E-01 9.144000411E-01 -3.741667047E-02
3.046077788E-01 9.144000411E-01 -3.743811324E-02
3.046077788E-01 9.144000411E-01 -3.743811324E-02
3.020336032E-01 9.144000411E-01 -3.745744750E-02
3.020336032E-01 9.144000411E-01 -3.745745122E-02
2.994593978E-01 9.144000411E-01 -3.747449443E-02
2.994593680E-01 9.144000411E-01 -3.747449443E-02
2.968851924E-01 9.144000411E-01 -3.748938814E-02
2.968851626E-01 9.144000411E-01 -3.748938814E-02
2.943109572E-01 9.144000411E-01 -3.750193119E-02
2.943109572E-01 9.144000411E-01 -3.750193119E-02
2.917366922E-01 9.144000411E-01 -3.751225397E-02
2.917366922E-01 9.144000411E-01 -3.751225397E-02
2.891624570E-01 9.144000411E-01 -3.752019256E-02
2.891624570E-01 9.144000411E-01 -3.752019256E-02
2.865881920E-01 9.144000411E-01 -3.752582148E-02
2.865881920E-01 9.144000411E-01 -3.752582148E-02
2.840139568E-01 9.144000411E-01 -3.752902523E-02
2.840139270E-01 9.144000411E-01 -3.752902523E-02
2.814396620E-01 9.144000411E-01 -3.752982616E-02
2.814396620E-01 9.144000411E-01 -3.752982616E-02
2.788654268E-01 9.144000411E-01 -3.752817586E-02
2.788653970E-01 9.144000411E-01 -3.752817586E-02
2.762911320E-01 9.144000411E-01 -3.752401844E-02
2.762911320E-01 9.144000411E-01 -3.752401844E-02
2.737168968E-01 9.144000411E-01 -3.751736879E-02
2.737168968E-01 9.144000411E-01 -3.751736879E-02
2.711426318E-01 9.144000411E-01 -3.750810400E-02
2.711426318E-01 9.144000411E-01 -3.750810400E-02
2.685684264E-01 9.144000411E-01 -3.749630600E-02
2.685683966E-01 9.144000411E-01 -3.749630600E-02
2.659941912E-01 9.144000411E-01 -3.748178110E-02
2.659941614E-01 9.144000411E-01 -3.748178110E-02
2.634199858E-01 9.144000411E-01 -3.746467084E-02
2.634199858E-01 9.144000411E-01 -3.746467084E-02
2.608457804E-01 9.144000411E-01 -3.744475916E-02
2.608457804E-01 9.144000411E-01 -3.744475916E-02
2.582716346E-01 9.144000411E-01 -3.742215410E-02
2.582716048E-01 9.144000411E-01 -3.742215410E-02
2.556974888E-01 9.144000411E-01 -3.739670292E-02
2.556974888E-01 9.144000411E-01 -3.739670292E-02
2.531233728E-01 9.144000411E-01 -3.736843169E-02
2.531233728E-01 9.144000411E-01 -3.736843169E-02
2.505493164E-01 9.144000411E-01 -3.733726218E-02
2.505492866E-01 9.144000411E-01 -3.733726218E-02
2.479752600E-01 9.144000411E-01 -3.730314597E-02
2.479752600E-01 9.144000411E-01 -3.730314597E-02
2.454012781E-01 9.144000411E-01 -3.726609051E-02
2.454012632E-01 9.144000411E-01 -3.726609051E-02
2.428273112E-01 9.144000411E-01 -3.722594306E-02
2.428273112E-01 9.144000411E-01 -3.722594306E-02
2.402534187E-01 9.144000411E-01 -3.718280420E-02
2.402534038E-01 9.144000411E-01 -3.718280420E-02
2.376795858E-01 9.144000411E-01 -3.713643551E-02
2.376795709E-01 9.144000411E-01 -3.713643551E-02
2.351057827E-01 9.144000411E-01 -3.708700091E-02
2.351057678E-01 9.144000411E-01 -3.708700091E-02
2.325320542E-01 9.144000411E-01 -3.703420609E-02
2.325320542E-01 9.144000411E-01 -3.703420609E-02
2.299584001E-01 9.144000411E-01 -3.697824478E-02
2.299584001E-01 9.144000411E-01 -3.697824478E-02
2.273848206E-01 9.144000411E-01 -3.691884130E-02
2.273848206E-01 9.144000411E-01 -3.691884130E-02
2.248113304E-01 9.144000411E-01 -3.685614839E-02
2.248113304E-01 9.144000411E-01 -3.685614839E-02
2.222379148E-01 9.144000411E-01 -3.678990155E-02
2.222379148E-01 9.144000411E-01 -3.678990155E-02
2.196646035E-01 9.144000411E-01 -3.672023118E-02
2.196645886E-01 9.144000411E-01 -3.672023118E-02
2.170913815E-01 9.144000411E-01 -3.664690256E-02
2.170913666E-01 9.144000411E-01 -3.664690256E-02
2.145182639E-01 9.144000411E-01 -3.657001629E-02
2.145182490E-01 9.144000411E-01 -3.657001629E-02
2.119452655E-01 9.144000411E-01 -3.648937121E-02
2.119452506E-01 9.144000411E-01 -3.648937121E-02
2.093723714E-01 9.144000411E-01 -3.640504181E-02
2.093723714E-01 9.144000411E-01 -3.640504181E-02
2.067996413E-01 9.144000411E-01 -3.631679714E-02
2.067996264E-01 9.144000411E-01 -3.631679714E-02
2.042270154E-01 9.144000411E-01 -3.622474894E-02
2.042270005E-01 9.144000411E-01 -3.622474894E-02
2.016545385E-01 9.144000411E-01 -3.612862527E-02
2.016545385E-01 9.144000411E-01 -3.612862527E-02
1.990822256E-01 9.144000411E-01 -3.602858260E-02
1.990822107E-01 9.144000411E-01 -3.602858260E-02
1.965100765E-01 9.144000411E-01 -3.592430428E-02
1.965100765E-01 9.144000411E-01 -3.592430428E-02
1.939380914E-01 9.144000411E-01 -3.581597656E-02
1.939380765E-01 9.144000411E-01 -3.581597656E-02
1.913663000E-01 9.144000411E-01 -3.570326418E-02
1.913662851E-01 9.144000411E-01 -3.570325673E-02
1.887946874E-01 9.144000411E-01 -3.558629006E-02
1.887946725E-01 9.144000411E-01 -3.558629006E-02
1.862232983E-01 9.144000411E-01 -3.546484560E-02
1.862232834E-01 9.144000411E-01 -3.546484560E-02
1.836521178E-01 9.144000411E-01 -3.533890471E-02
1.836521029E-01 9.144000411E-01 -3.533890471E-02
1.810811609E-01 9.144000411E-01 -3.520842269E-02
1.810811460E-01 9.144000411E-01 -3.520842269E-02
1.785104573E-01 9.144000411E-01 -3.507317975E-02
1.785104424E-01 9.144000411E-01 -3.507317975E-02
1.759399921E-01 9.144000411E-01 -3.493327275E-02
1.759399921E-01 9.144000411E-01 -3.493327275E-02
1.733698100E-01 9.144000411E-01 -3.478840739E-02
1.733697951E-01 9.144000411E-01 -3.478840739E-02
1.707999110E-01 9.144000411E-01 -3.463861346E-02
1.707998961E-01 9.144000411E-01 -3.463860974E-02
1.682302952E-01 9.144000411E-01 -3.448383510E-02
1.682302803E-01 9.144000411E-01 -3.448382765E-02
1.656610072E-01 9.144000411E-01 -3.432376683E-02
1.656610072E-01 9.144000411E-01 -3.432376683E-02
1.630920619E-01 9.144000411E-01 -3.415854648E-02
1.630920619E-01 9.144000411E-01 -3.415854275E-02
1.605234593E-01 9.144000411E-01 -3.398798034E-02
1.605234444E-01 9.144000411E-01 -3.398797661E-02
1.579550952E-01 9.144000411E-01 -3.381364420E-02
1.579550952E-01 9.144000411E-01 -3.381364420E-02
1.553868055E-01 9.144000411E-01 -3.363817558E-02
1.553867906E-01 9.144000411E-01 -3.363817185E-02
1.528187841E-01 9.144000411E-01 -3.345835209E-02
1.528187841E-01 9.144000411E-01 -3.345835209E-02
1.502511650E-01 9.144000411E-01 -3.327295184E-02
1.502511501E-01 9.144000411E-01 -3.327295184E-02
1.476838738E-01 9.144000411E-01 -3.308244422E-02
1.476838589E-01 9.144000411E-01 -3.308244422E-02
1.451169401E-01 9.144000411E-01 -3.288677707E-02
1.451169401E-01 9.144000411E-01 -3.288677707E-02
1.425504386E-01 9.144000411E-01 -3.268538043E-02
1.425504237E-01 9.144000411E-01 -3.268538043E-02
1.399843693E-01 9.144000411E-01 -3.247799724E-02
1.399843544E-01 9.144000411E-01 -3.247799724E-02
1.374187171E-01 9.144000411E-01 -3.226521611E-02
1.374187171E-01 9.144000411E-01 -3.226521239E-02
1.348534673E-01 9.144000411E-01 -3.204710037E-02
1.348534673E-01 9.144000411E-01 -3.204710037E-02
1.322886944E-01 9.144000411E-01 -3.182294965E-02
1.322886795E-01 9.144000411E-01 -3.182294965E-02
1.297244430E-01 9.144000411E-01 -3.159238026E-02
1.297244430E-01 9.144000411E-01 -3.159238026E-02
1.271607131E-01 9.144000411E-01 -3.135553747E-02
1.271606982E-01 9.144000411E-01 -3.135553375E-02
1.245974451E-01 9.144000411E-01 -3.111299872E-02
1.245974377E-01 9.144000411E-01 -3.111299872E-02
1.220346913E-01 9.144000411E-01 -3.086439893E-02
1.220346838E-01 9.144000411E-01 -3.086439893E-02
1.194725409E-01 9.144000411E-01 -3.060889989E-02
1.194725335E-01 9.144000411E-01 -3.060889803E-02
1.169110388E-01 9.144000411E-01 -3.034625016E-02
1.169110239E-01 9.144000411E-01 -3.034625016E-02
1.143501326E-01 9.144000411E-01 -3.007695451E-02
1.143501177E-01 9.144000411E-01 -3.007695265E-02
1.117897555E-01 9.144000411E-01 -2.980160154E-02
1.117897481E-01 9.144000411E-01 -2.980159968E-02
1.092074364E-01 9.144000411E-01 -2.951668017E-02
1.092074215E-01 9.144000411E-01 -2.951668017E-02
1.067487225E-01 9.144000411E-01 -2.923843823E-02
1.067487076E-01 9.144000411E-01 -2.923843823E-02
1.044077426E-01 9.144000411E-01 -2.896672674E-02
1.044077352E-01 9.144000411E-01 -2.896672487E-02
1.021788791E-01 9.144000411E-01 -2.870152332E-02
1.021788716E-01 9.144000411E-01 -2.870152146E-02
1.000567153E-01 9.144000411E-01 -2.844340540E-02
1.000567079E-01 9.144000411E-01 -2.844340354E-02
9.803591669E-02 9.144000411E-01 -2.819396369E-02
9.803590924E-02 9.144000411E-01 -2.819396183E-02
9.611164033E-02 9.144000411E-01 -2.795290388E-02
9.611163288E-02 9.144000411E-01 -2.795290388E-02
9.427946061E-02 9.144000411E-01 -2.771888673E-02
9.427945316E-02 9.144000411E-01 -2.771888673E-02
9.253497422E-02 9.144000411E-01 -2.749168314E-02
9.253496677E-02 9.144000411E-01 -2.749168314E-02
9.087395668E-02 9.144000411E-01 -2.727138065E-02
9.087395668E-02 9.144000411E-01 -2.727137879E-02
8.929257095E-02 9.144000411E-01 -2.705692500E-02
8.929256350E-02 9.144000411E-01 -2.705692500E-02
8.778692037E-02 9.144000411E-01 -2.684902959E-02
8.778691292E-02 9.144000411E-01 -2.684902772E-02
8.778690547E-02 9.144000411E-01 -2.684902772E-02
8.635272086E-02 9.144000411E-01 -2.665148862E-02
8.635271341E-02 9.144000411E-01 -2.665148675E-02
8.491883427E-02 9.144000411E-01 -2.645095065E-02
8.491882682E-02 9.144000411E-01 -2.645095065E-02
8.348520100E-02 9.144000411E-01 -2.624784969E-02
8.348519355E-02 9.144000411E-01 -2.624784969E-02
8.205167949E-02 9.144000411E-01 -2.604299039E-02
8.205167204E-02 9.144000411E-01 -2.604299039E-02
8.061841130E-02 9.144000411E-01 -2.583539672E-02
8.061840385E-02 9.144000411E-01 -2.583539300E-02
7.918544114E-02 9.144000411E-01 -2.562475950E-02
7.918543369E-02 9.144000411E-01 -2.562475950E-02
7.775277644E-02 9.144000411E-01 -2.541095018E-02
7.775277644E-02 9.144000411E-01 -2.541094832E-02
7.632046938E-02 9.144000411E-01 -2.519380860E-02
7.632046193E-02 9.144000411E-01 -2.519380674E-02
7.488852739E-02 9.144000411E-01 -2.497325838E-02
7.488851994E-02 9.144000411E-01 -2.497325651E-02
7.345695794E-02 9.144000411E-01 -2.474922873E-02
7.345695049E-02 9.144000411E-01 -2.474922687E-02
7.202575356E-02 9.144000411E-01 -2.452163957E-02
7.202574611E-02 9.144000411E-01 -2.452163771E-02
7.059495896E-02 9.144000411E-01 -2.429043315E-02
7.059495151E-02 9.144000411E-01 -2.429043315E-02
6.916439533E-02 9.144000411E-01 -2.405631170E-02
6.916438788E-02 9.144000411E-01 -2.405630983E-02
6.773370504E-02 9.144000411E-01 -2.382116392E-02
6.773369759E-02 9.144000411E-01 -2.382116206E-02
6.630279124E-02 9.144000411E-01 -2.358519658E-02
6.630278379E-02 9.144000411E-01 -2.358519472E-02
6.487196684E-02 9.144000411E-01 -2.334669977E-02
6.487195939E-02 9.144000411E-01 -2.334669791E-02
6.344138086E-02 9.144000411E-01 -2.310477756E-02
6.344137341E-02 9.144000411E-01 -2.310477570E-02
6.201109663E-02 9.144000411E-01 -2.285913751E-02
6.201108918E-02 9.144000411E-01 -2.285913751E-02
6.058116630E-02 9.144000411E-01 -2.260951884E-02
6.058115885E-02 9.144000411E-01 -2.260951884E-02
5.915159360E-02 9.144000411E-01 -2.235585637E-02
5.915158987E-02 9.144000411E-01 -2.235585637E-02
5.772228539E-02 9.144000411E-01 -2.209828049E-02
5.772228166E-02 9.144000411E-01 -2.209827863E-02
5.629323795E-02 9.144000411E-01 -2.183669433E-02
5.629323050E-02 9.144000411E-01 -2.183669247E-02
5.486447737E-02 9.144000411E-01 -2.157094702E-02
5.486446992E-02 9.144000411E-01 -2.157094516E-02
5.343586206E-02 9.144000411E-01 -2.130142786E-02
5.343585461E-02 9.144000411E-01 -2.130142599E-02
5.200691894E-02 9.144000411E-01 -2.103011869E-02
5.200691149E-02 9.144000411E-01 -2.103011683E-02
5.057705939E-02 9.144000411E-01 -2.075902373E-02
5.057705194E-02 9.144000411E-01 -2.075902186E-02
4.914660007E-02 9.144000411E-01 -2.048655041E-02
4.914659262E-02 9.144000411E-01 -2.048655041E-02
4.771598056E-02 9.144000411E-01 -2.021058276E-02
4.771597311E-02 9.144000411E-01 -2.021058090E-02
4.628512263E-02 9.144000411E-01 -1.993075758E-02
4.628511891E-02 9.144000411E-01 -1.993075572E-02
4.485397786E-02 9.144000411E-01 -1.964692585E-02
4.485397041E-02 9.144000411E-01 -1.964692399E-02
4.342265055E-02 9.144000411E-01 -1.935853995E-02
4.342264310E-02 9.144000411E-01 -1.935853809E-02
4.199120775E-02 9.144000411E-01 -1.906520128E-02
4.199120402E-02 9.144000411E-01 -1.906520128E-02
4.055960476E-02 9.144000411E-01 -1.876672730E-02
4.055960104E-02 9.144000411E-01 -1.876672544E-02
3.912770003E-02 9.144000411E-01 -1.846312732E-02
3.912769631E-02 9.144000411E-01 -1.846312545E-02
3.769525141E-02 9.144000411E-01 -1.815454103E-02
3.769524768E-02 9.144000411E-01 -1.815453917E-02
3.626193106E-02 9.144000411E-01 -1.784111932E-02
3.626192734E-02 9.144000411E-01 -1.784111746E-02
3.482709825E-02 9.144000411E-01 -1.752445847E-02
3.482709453E-02 9.144000411E-01 -1.752445847E-02
3.338926286E-02 9.144000411E-01 -1.720889844E-02
3.338925540E-02 9.144000411E-01 -1.720889658E-02
3.194796294E-02 9.144000411E-01 -1.689453609E-02
3.194795549E-02 9.144000411E-01 -1.689453423E-02
3.050402552E-02 9.144000411E-01 -1.657749526E-02
3.050401993E-02 9.144000411E-01 -1.657749526E-02
2.905720845E-02 9.144000411E-01 -1.625652239E-02
2.905720100E-02 9.144000411E-01 -1.625652052E-02
2.760701254E-02 9.144000411E-01 -1.593118906E-02
2.760700509E-02 9.144000411E-01 -1.593118720E-02
2.615337446E-02 9.144000411E-01 -1.560054347E-02
2.615336888E-02 9.144000411E-01 -1.560054068E-02
2.469617128E-02 9.144000411E-01 -1.526357513E-02
2.469616383E-02 9.144000411E-01 -1.526357420E-02
2.323505282E-02 9.144000411E-01 -1.491982024E-02
2.323504537E-02 9.144000411E-01 -1.491981838E-02
2.176851034E-02 9.144000411E-01 -1.456979290E-02
2.176850475E-02 9.144000411E-01 -1.456979197E-02
2.029479854E-02 9.144000411E-01 -1.421395782E-02
2.029479109E-02 9.144000411E-01 -1.421395596E-02
1.880977117E-02 9.144000411E-01 -1.385840960E-02
1.880976371E-02 9.144000411E-01 -1.385840774E-02
1.730549522E-02 9.144000411E-01 -1.351769082E-02
1.730548590E-02 9.144000411E-01 -1.351768989E-02
1.577921398E-02 9.144000411E-01 -1.319163479E-02
1.577920653E-02 9.144000411E-01 -1.319163386E-02
1.423287857E-02 9.144000411E-01 -1.286568306E-02
1.423287205E-02 9.144000411E-01 -1.286568027E-02
1.266475767E-02 9.144000411E-01 -1.253201906E-02
1.266475115E-02 9.144000411E-01 -1.253201719E-02
1.107339188E-02 9.144000411E-01 -1.218521874E-02
1.107338537E-02 9.144000411E-01 -1.218521781E-02
9.412616491E-03 9.144000411E-01 -1.190010831E-02
9.412605315E-03 9.144000411E-01 -1.190011296E-02
6.872463971E-03 9.144000411E-01 -1.301414147E-02
6.872453727E-03 9.144000411E-01 -1.301414333E-02
4.496482201E-03 9.144000411E-01 -1.359433401E-02
4.496475682E-03 9.144000411E-01 -1.359433029E-02
2.940930193E-03 9.144000411E-01 -1.270258334E-02
2.940923208E-03 9.144000411E-01 -1.270257868E-02
1.357246656E-03 9.144000411E-01 -1.175952144E-02
1.357239555E-03 9.144000411E-01 -1.175951678E-02
-2.492542553E-04 9.144000411E-01 -1.073127147E-02
-2.492607455E-04 9.144000411E-01 -1.073126588E-02
-1.736675855E-03 9.144000411E-01 -9.541328996E-03
-1.736681326E-03 9.144000411E-01 -9.541322477E-03
-2.987255575E-03 9.144000411E-01 -8.161890320E-03
-2.987260232E-03 9.144000411E-01 -8.161883801E-03
-4.023329820E-03 9.144000411E-01 -6.658873521E-03
-4.023333080E-03 9.144000411E-01 -6.658867002E-03
-4.793460947E-03 9.144000411E-01 -5.046523176E-03
-4.793462809E-03 9.144000411E-01 -5.046515726E-03
-5.224443041E-03 9.144000411E-01 -3.287894651E-03
-5.224440712E-03 9.144000411E-01 -3.287885338E-03
-4.751497880E-03 9.144000411E-01 -1.077293535E-04
-4.751500674E-03 9.144000411E-01 -1.077287947E-04
-5.393705331E-03 9.144000411E-01 2.503479482E-04
-5.393722095E-03 9.144000411E-01 2.503471333E-04
-9.250720032E-03 9.144000411E-01 6.561035116E-05
-9.250733070E-03 9.144000411E-01 6.561334158E-05
-1.233239472E-02 9.144000411E-01 7.462945068E-04
-1.233240496E-02 9.144000411E-01 7.463002112E-04
-1.478570793E-02 9.144000411E-01 2.054208191E-03
-1.478571724E-02 9.144000411E-01 2.054215875E-03
-1.696710847E-02 9.144000411E-01 3.771206364E-03
-1.696711779E-02 9.144000411E-01 3.771215444E-03
-1.891254075E-02 9.144000411E-01 5.831456743E-03
-1.891254820E-02 9.144000411E-01 5.831466988E-03
-2.052705735E-02 9.144000411E-01 8.205103688E-03
-2.052705735E-02 9.144000411E-01 8.205113932E-03
-2.070282400E-02 9.144000411E-01 1.077057514E-02
-2.070280351E-02 9.144000411E-01 1.077058353E-02
-1.591109671E-02 9.144000411E-01 1.260271389E-02
-1.591108553E-02 9.144000411E-01 1.260272041E-02
-1.311636623E-02 9.144000411E-01 1.412186772E-02
-1.311635971E-02 9.144000411E-01 1.412187517E-02
-1.165291760E-02 9.144000411E-01 1.566630416E-02
-1.165291015E-02 9.144000411E-01 1.566630974E-02
-1.000057068E-02 9.144000411E-01 1.696024835E-02
-1.000056136E-02 9.144000411E-01 1.696025208E-02
-8.189787157E-03 9.144000411E-01 1.797634363E-02
-8.189779706E-03 9.144000411E-01 1.797634736E-02
-6.300466135E-03 9.144000411E-01 1.873037033E-02
-6.300458219E-03 9.144000411E-01 1.873037219E-02
-4.468345549E-03 9.144000411E-01 1.930631883E-02
-4.468338564E-03 9.144000411E-01 1.930632070E-02
-2.743498422E-03 9.144000411E-01 1.977896690E-02
-2.743491204E-03 9.144000411E-01 1.977896877E-02
-1.062321826E-03 9.144000411E-01 2.014870197E-02
-1.062314725E-03 9.144000411E-01 2.014870197E-02
5.803235108E-04 9.144000411E-01 2.043256164E-02
5.803304375E-04 9.144000411E-01 2.043256164E-02
2.177136252E-03 9.144000411E-01 2.069620043E-02
2.177143004E-03 9.144000411E-01 2.069620416E-02
3.763059154E-03 9.144000411E-01 2.096007951E-02
3.763066139E-03 9.144000411E-01 2.096008137E-02
5.341851618E-03 9.144000411E-01 2.122486196E-02
5.341858603E-03 9.144000411E-01 2.122486383E-02
6.926863454E-03 9.144000411E-01 2.152399719E-02
6.926870439E-03 9.144000411E-01 2.152399905E-02
8.501691744E-03 9.144000411E-01 2.185312100E-02
8.501698263E-03 9.144000411E-01 2.185312286E-02
1.002251916E-02 9.144000411E-01 2.218995616E-02
1.002252568E-02 9.144000411E-01 2.218995802E-02
1.150631998E-02 9.144000411E-01 2.253285050E-02
1.150632650E-02 9.144000411E-01 2.253285237E-02
1.296257786E-02 9.144000411E-01 2.288248017E-02
1.296258438E-02 9.144000411E-01 2.288248204E-02
1.439892221E-02 9.144000411E-01 2.323820069E-02
1.439892780E-02 9.144000411E-01 2.323820069E-02
1.582329348E-02 9.144000411E-01 2.359412424E-02