#++++++++++++++++++++++++++++++++++++++++++++++++++++++++++++++++++++++++++++++++++++++++++++++++++++++++++++++++++++
#
#   IPW-3 Ice Shape DATA SUBMITTAL FORM for Test Case NACA0012_AE3932, May 18th 2026
#
#       NOMENCLATURE:
#             X_ICED [m]:  X-coordinate of the iced surface
#             Y_ICED [m]:  Y-coordinate of the iced surface
#             Z_ICED [m]:  Z-coordinate of the iced surface
#
#                XXmm:  Roughness height used for the case, in mm.
#                       In the zone name, use the format KS_XXmm.
#                       For example, if k_s = 1.5 mm, use KS_1p5mm. 
#                       For Variable roughness, use KS_VAR
#
#    FLOW CONDITIONS:
#                                   AOA: 4.0 deg
#                           Mach Number: 0.3151 [-]
#       Mean aerodynamic chord (M.A.C.): 0.5334 [m]
#                       Reynolds Number: 3.9795 million (based on MAC)
#                       Freestream Temp: 267.55 [K]
#                        Reference area: 0.97548 [m2]
#               Moment Reference Center: 0.13335, 0, 0 [m] (X, Y, Z)
#
#    ICING CONDITIONS:
#                           Icing Time: 420 [s]
#                                  LWC: 0.55 [g/m3]
#                                  MVD: 20 [μm]
#
#              NOTES: 1. Please use at least 5 decimal places in the numerical values
#                     2. If data are NOT provided, please fill data fields with a numerical value of "-999" 
#
#++++++++++++++++++++++++++++++++++++++++++++++++++++++++++++++++++++++++++++++++++++++++++++++++++++++++++++++++++++

AUXDATA NUM_LAYERS  = "insert the number of total ice layers"
                                              
VARIABLES = "X_ICED" "Y_ICED" "Z_ICED"

ZONE T="SLICE_Y_0p9144_BINS01_KS_XXmm_SINGLE_LAYER"
-999 -999 -999

ZONE T="SLICE_Y_0p9144_BINS03_KS_XXmm_SINGLE_LAYER"
-999 -999 -999

ZONE T="SLICE_Y_0p9144_BINS07_KS_XXmm_SINGLE_LAYER"
-999 -999 -999

ZONE T="SLICE_Y_0p9144_BINS15_KS_XXmm_SINGLE_LAYER"
 5.324723849E+02 9.144000000E+02 -2.723562889E+01
 5.324723849E+02 9.144000000E+02 -2.723562923E+01
 5.324567479E+02 9.144000000E+02 -2.745911050E+01
 5.324411132E+02 9.144000000E+02 -2.768259193E+01
 5.324411132E+02 9.144000000E+02 -2.768259227E+01
 5.324254892E+02 9.144000000E+02 -2.790607445E+01
 5.324254891E+02 9.144000000E+02 -2.790607479E+01
 5.324098651E+02 9.144000000E+02 -2.812955697E+01
 5.324098651E+02 9.144000000E+02 -2.812955731E+01
 5.323942518E+02 9.144000000E+02 -2.835304023E+01
 5.323942518E+02 9.144000000E+02 -2.835304057E+01
 5.323786205E+02 9.144000000E+02 -2.857652224E+01
 5.323786205E+02 9.144000000E+02 -2.857652258E+01
 5.316589988E+02 9.144000000E+02 -2.862655495E+01
 5.316589977E+02 9.144000000E+02 -2.862655502E+01
 5.305075834E+02 9.144000000E+02 -2.870632559E+01
 5.305075816E+02 9.144000000E+02 -2.870632571E+01
 5.286652600E+02 9.144000000E+02 -2.883310808E+01
 5.286652572E+02 9.144000000E+02 -2.883310828E+01
 5.257173939E+02 9.144000000E+02 -2.903378917E+01
 5.257173894E+02 9.144000000E+02 -2.903378948E+01
 5.210004245E+02 9.144000000E+02 -2.934918988E+01
 5.210004173E+02 9.144000000E+02 -2.934919036E+01
 5.134523565E+02 9.144000000E+02 -2.983992841E+01
 5.134523450E+02 9.144000000E+02 -2.983992916E+01
 5.052353625E+02 9.144000000E+02 -3.035483404E+01
 5.052353500E+02 9.144000000E+02 -3.035483483E+01
 4.970171817E+02 9.144000000E+02 -3.085045320E+01
 4.970171692E+02 9.144000000E+02 -3.085045395E+01
 4.887978744E+02 9.144000000E+02 -3.132702696E+01
 4.887978619E+02 9.144000000E+02 -3.132702769E+01
 4.805775197E+02 9.144000000E+02 -3.178517940E+01
 4.805775072E+02 9.144000000E+02 -3.178518010E+01
 4.723561795E+02 9.144000000E+02 -3.222529184E+01
 4.723561669E+02 9.144000000E+02 -3.222529251E+01
 4.641339099E+02 9.144000000E+02 -3.264768767E+01
 4.641338974E+02 9.144000000E+02 -3.264768831E+01
 4.559107646E+02 9.144000000E+02 -3.305267552E+01
 4.559107521E+02 9.144000000E+02 -3.305267614E+01
 4.476867979E+02 9.144000000E+02 -3.344062854E+01
 4.476867854E+02 9.144000000E+02 -3.344062913E+01
 4.394620456E+02 9.144000000E+02 -3.381155207E+01
 4.394620331E+02 9.144000000E+02 -3.381155263E+01
 4.312365561E+02 9.144000000E+02 -3.416575138E+01
 4.312365436E+02 9.144000000E+02 -3.416575192E+01
 4.230103679E+02 9.144000000E+02 -3.450333427E+01
 4.230103554E+02 9.144000000E+02 -3.450333478E+01
 4.147835178E+02 9.144000000E+02 -3.482438256E+01
 4.147835053E+02 9.144000000E+02 -3.482438305E+01
 4.065560318E+02 9.144000000E+02 -3.512869908E+01
 4.065560192E+02 9.144000000E+02 -3.512869954E+01
 3.983279506E+02 9.144000000E+02 -3.541647474E+01
 3.983279381E+02 9.144000000E+02 -3.541647517E+01
 3.900993002E+02 9.144000000E+02 -3.568748197E+01
 3.900992876E+02 9.144000000E+02 -3.568748238E+01
 3.818701120E+02 9.144000000E+02 -3.594164094E+01
 3.818700995E+02 9.144000000E+02 -3.594164132E+01
 3.736404095E+02 9.144000000E+02 -3.617855746E+01
 3.736403969E+02 9.144000000E+02 -3.617855783E+01
 3.654102266E+02 9.144000000E+02 -3.639815457E+01
 3.654102141E+02 9.144000000E+02 -3.639815490E+01
 3.571795902E+02 9.144000000E+02 -3.660004167E+01
 3.571795777E+02 9.144000000E+02 -3.660004198E+01
 3.489485283E+02 9.144000000E+02 -3.678376482E+01
 3.489485157E+02 9.144000000E+02 -3.678376510E+01
 3.407170707E+02 9.144000000E+02 -3.694881879E+01
 3.407170582E+02 9.144000000E+02 -3.694881904E+01
 3.324852517E+02 9.144000000E+02 -3.709473239E+01
 3.324852392E+02 9.144000000E+02 -3.709473261E+01
 3.242531065E+02 9.144000000E+02 -3.722090761E+01
 3.242530940E+02 9.144000000E+02 -3.722090781E+01
 3.160206737E+02 9.144000000E+02 -3.732666586E+01
 3.160206612E+02 9.144000000E+02 -3.732666602E+01
 3.077879963E+02 9.144000000E+02 -3.741127013E+01
 3.077879838E+02 9.144000000E+02 -3.741127026E+01
 2.995551225E+02 9.144000000E+02 -3.747389973E+01
 2.995551099E+02 9.144000000E+02 -3.747389982E+01
 2.913221064E+02 9.144000000E+02 -3.751367044E+01
 2.913220939E+02 9.144000000E+02 -3.751367050E+01
 2.830890097E+02 9.144000000E+02 -3.752960426E+01
 2.830889972E+02 9.144000000E+02 -3.752960428E+01
 2.748559024E+02 9.144000000E+02 -3.752064916E+01
 2.748558899E+02 9.144000000E+02 -3.752064914E+01
 2.666228649E+02 9.144000000E+02 -3.748559666E+01
 2.666228523E+02 9.144000000E+02 -3.748559660E+01
 2.583899889E+02 9.144000000E+02 -3.742324144E+01
 2.583899764E+02 9.144000000E+02 -3.742324135E+01
 2.501573798E+02 9.144000000E+02 -3.733224287E+01
 2.501573672E+02 9.144000000E+02 -3.733224273E+01
 2.419251582E+02 9.144000000E+02 -3.721115896E+01
 2.419251457E+02 9.144000000E+02 -3.721115878E+01
 2.336934634E+02 9.144000000E+02 -3.705840793E+01
 2.336934508E+02 9.144000000E+02 -3.705840770E+01
 2.254624548E+02 9.144000000E+02 -3.687231119E+01
 2.254624423E+02 9.144000000E+02 -3.687231091E+01
 2.172323171E+02 9.144000000E+02 -3.665102664E+01
 2.172323046E+02 9.144000000E+02 -3.665102630E+01
 2.090032620E+02 9.144000000E+02 -3.639259659E+01
 2.090032495E+02 9.144000000E+02 -3.639259620E+01
 2.007755345E+02 9.144000000E+02 -3.609488402E+01
 2.007755220E+02 9.144000000E+02 -3.609488357E+01
 1.925494158E+02 9.144000000E+02 -3.575561809E+01
 1.925494032E+02 9.144000000E+02 -3.575561757E+01
 1.843252316E+02 9.144000000E+02 -3.537230876E+01
 1.843252191E+02 9.144000000E+02 -3.537230817E+01
 1.761033556E+02 9.144000000E+02 -3.494232356E+01
 1.761033431E+02 9.144000000E+02 -3.494232291E+01
 1.681960408E+02 9.144000000E+02 -3.448174484E+01
 1.681960287E+02 9.144000000E+02 -3.448174414E+01
 1.606680472E+02 9.144000000E+02 -3.399768688E+01
 1.606680358E+02 9.144000000E+02 -3.399768614E+01
 1.535014662E+02 9.144000000E+02 -3.349308259E+01
 1.535014553E+02 9.144000000E+02 -3.349308182E+01
 1.466792326E+02 9.144000000E+02 -3.297058042E+01
 1.466792223E+02 9.144000000E+02 -3.297057963E+01
 1.401850731E+02 9.144000000E+02 -3.243274050E+01
 1.401850632E+02 9.144000000E+02 -3.243273968E+01
 1.340034711E+02 9.144000000E+02 -3.188198170E+01
 1.340034617E+02 9.144000000E+02 -3.188198086E+01
 1.281191413E+02 9.144000000E+02 -3.132555458E+01
 1.281191323E+02 9.144000000E+02 -3.132555373E+01
 1.225161000E+02 9.144000000E+02 -3.078255777E+01
 1.225160914E+02 9.144000000E+02 -3.078255694E+01
 1.171815089E+02 9.144000000E+02 -3.024569197E+01
 1.171815007E+02 9.144000000E+02 -3.024569115E+01
 1.121033698E+02 9.144000000E+02 -2.970769939E+01
 1.121033620E+02 9.144000000E+02 -2.970769857E+01
 1.072695283E+02 9.144000000E+02 -2.916913893E+01
 1.072695209E+02 9.144000000E+02 -2.916913811E+01
 1.026681753E+02 9.144000000E+02 -2.863237956E+01
 1.026681683E+02 9.144000000E+02 -2.863237874E+01
 9.828799900E+01 9.144000000E+02 -2.809982858E+01
 9.828799233E+01 9.144000000E+02 -2.809982777E+01
 9.411901476E+01 9.144000000E+02 -2.756803361E+01
 9.411900841E+01 9.144000000E+02 -2.756803280E+01
 9.015090714E+01 9.144000000E+02 -2.703969810E+01
 9.015090110E+01 9.144000000E+02 -2.703969730E+01
 9.015089534E+01 9.144000000E+02 -2.703969652E+01
 8.637184725E+01 9.144000000E+02 -2.652952668E+01
 8.637184142E+01 9.144000000E+02 -2.652952586E+01
 8.253794550E+01 9.144000000E+02 -2.599098100E+01
 8.253793966E+01 9.144000000E+02 -2.599098014E+01
 7.870670451E+01 9.144000000E+02 -2.542823643E+01
 7.870669868E+01 9.144000000E+02 -2.542823554E+01
 7.487765111E+01 9.144000000E+02 -2.484395801E+01
 7.487764528E+01 9.144000000E+02 -2.484395710E+01
 7.105004994E+01 9.144000000E+02 -2.424154856E+01
 7.105004411E+01 9.144000000E+02 -2.424154761E+01
 6.722361573E+01 9.144000000E+02 -2.362109868E+01
 6.722360991E+01 9.144000000E+02 -2.362109770E+01
 6.339901177E+01 9.144000000E+02 -2.297757415E+01
 6.339900595E+01 9.144000000E+02 -2.297757314E+01
 5.957644132E+01 9.144000000E+02 -2.230865354E+01
 5.957643550E+01 9.144000000E+02 -2.230865249E+01
 5.575446849E+01 9.144000000E+02 -2.161870368E+01
 5.575446267E+01 9.144000000E+02 -2.161870261E+01
 5.193122855E+01 9.144000000E+02 -2.091223363E+01
 5.193122273E+01 9.144000000E+02 -2.091223253E+01
 4.810680856E+01 9.144000000E+02 -2.018428174E+01
 4.810680274E+01 9.144000000E+02 -2.018428059E+01
 4.428180244E+01 9.144000000E+02 -1.942681507E+01
 4.428179662E+01 9.144000000E+02 -1.942681387E+01
 4.045541364E+01 9.144000000E+02 -1.863691104E+01
 4.045540780E+01 9.144000000E+02 -1.863690980E+01
 3.662289227E+01 9.144000000E+02 -1.782265394E+01
 3.662288641E+01 9.144000000E+02 -1.782265268E+01
 3.277656062E+01 9.144000000E+02 -1.699539074E+01
 3.277655449E+01 9.144000000E+02 -1.699539017E+01
 2.874959875E+01 9.144000000E+02 -1.661641725E+01
 2.874959213E+01 9.144000000E+02 -1.661641773E+01
 2.440416685E+01 9.144000000E+02 -1.692169802E+01
 2.440416106E+01 9.144000000E+02 -1.692169596E+01
 2.059631647E+01 9.144000000E+02 -1.558724298E+01
 2.059631062E+01 9.144000000E+02 -1.558724090E+01
 1.675240086E+01 9.144000000E+02 -1.421534553E+01
 1.675239485E+01 9.144000000E+02 -1.421534349E+01
 1.280653982E+01 9.144000000E+02 -1.287079255E+01
 1.280653353E+01 9.144000000E+02 -1.287079055E+01
 8.677724575E+00 9.144000000E+02 -1.155714506E+01
 8.677718024E+00 9.144000000E+02 -1.155714270E+01
 4.375450764E+00 9.144000000E+02 -1.000851342E+01
 4.375444467E+00 9.144000000E+02 -1.000850969E+01
 2.400465773E-01 9.144000000E+02 -7.557133385E+00
 2.400418541E-01 9.144000000E+02 -7.557128637E+00
 -2.863847720E+00 9.144000000E+02 -4.430211006E+00
 -2.863853505E+00 9.144000000E+02 -4.430207438E+00
 -6.774901943E+00 9.144000000E+02 -2.124539737E+00
 -6.774909649E+00 9.144000000E+02 -2.124535950E+00
 -1.197994606E+01 9.144000000E+02 3.858413137E-01
 -1.197995035E+01 9.144000000E+02 3.858481129E-01
 -1.472375470E+01 9.144000000E+02 4.967291977E+00
 -1.472375679E+01 9.144000000E+02 4.967300279E+00
 -1.587816290E+01 9.144000000E+02 1.043110570E+01
 -1.587815797E+01 9.144000000E+02 1.043111312E+01
 -1.257581755E+01 9.144000000E+02 1.523547741E+01
 -1.257580843E+01 9.144000000E+02 1.523548107E+01
 -6.881483076E+00 9.144000000E+02 1.770372851E+01
 -6.881476379E+00 9.144000000E+02 1.770373091E+01
 -2.454724278E+00 9.144000000E+02 1.928817072E+01
 -2.454718019E+00 9.144000000E+02 1.928817206E+01
 1.695296915E+00 9.144000000E+02 2.017654599E+01
 1.695303032E+00 9.144000000E+02 2.017654721E+01
 5.713067017E+00 9.144000000E+02 2.098029615E+01
 5.713073333E+00 9.144000000E+02 2.098029765E+01
 9.857594220E+00 9.144000000E+02 2.196306228E+01
 9.857600154E+00 9.144000000E+02 2.196306375E+01
 1.375403798E+01 9.144000000E+02 2.292972757E+01
 1.375404376E+01 9.144000000E+02 2.292972902E+01
 1.754809991E+01 9.144000000E+02 2.388753819E+01
 1.754810564E+01 9.144000000E+02 2.388753959E+01
 2.131058293E+01 9.144000000E+02 2.480850607E+01
 2.131058865E+01 9.144000000E+02 2.480850739E+01
 2.507074955E+01 9.144000000E+02 2.566999744E+01
 2.507075527E+01 9.144000000E+02 2.566999869E+01
 2.883214823E+01 9.144000000E+02 2.649324269E+01
 2.883215397E+01 9.144000000E+02 2.649324389E+01
 3.259944639E+01 9.144000000E+02 2.727962788E+01
 3.259945215E+01 9.144000000E+02 2.727962895E+01
 3.638275740E+01 9.144000000E+02 2.798449827E+01
 3.638276318E+01 9.144000000E+02 2.798449922E+01
 4.017947283E+01 9.144000000E+02 2.861317645E+01
 4.017947863E+01 9.144000000E+02 2.861317730E+01
 4.398680041E+01 9.144000000E+02 2.917401708E+01
 4.398680622E+01 9.144000000E+02 2.917401784E+01
 4.780253856E+01 9.144000000E+02 2.967444485E+01
 4.780254439E+01 9.144000000E+02 2.967444552E+01
 5.162508772E+01 9.144000000E+02 3.011987000E+01
 5.162509355E+01 9.144000000E+02 3.011987060E+01
 5.545311887E+01 9.144000000E+02 3.051542100E+01
 5.545312471E+01 9.144000000E+02 3.051542154E+01
 5.928561031E+01 9.144000000E+02 3.086512677E+01
 5.928561615E+01 9.144000000E+02 3.086512724E+01
 6.312173566E+01 9.144000000E+02 3.117241394E+01
 6.312174150E+01 9.144000000E+02 3.117241435E+01
 6.696079672E+01 9.144000000E+02 3.144054380E+01
 6.696080257E+01 9.144000000E+02 3.144054415E+01
 7.080224139E+01 9.144000000E+02 3.167203081E+01
 7.080224724E+01 9.144000000E+02 3.167203111E+01
 7.464560014E+01 9.144000000E+02 3.186920341E+01
 7.464560599E+01 9.144000000E+02 3.186920366E+01
 7.849047095E+01 9.144000000E+02 3.203428529E+01
 7.849047680E+01 9.144000000E+02 3.203428550E+01
 8.233652646E+01 9.144000000E+02 3.216897290E+01
 8.233653232E+01 9.144000000E+02 3.216897306E+01
 8.618347874E+01 9.144000000E+02 3.227500006E+01
 9.003107706E+01 9.144000000E+02 3.235390287E+01
 9.003108292E+01 9.144000000E+02 3.235390299E+01
 9.003108857E+01 9.144000000E+02 3.235390307E+01
 9.373912449E+01 9.144000000E+02 3.240542925E+01
 9.373913042E+01 9.144000000E+02 3.240542929E+01
 9.763283098E+01 9.144000000E+02 3.243506002E+01
 9.763283721E+01 9.144000000E+02 3.243506003E+01
 1.017213378E+02 9.144000000E+02 3.244039374E+01
 1.017213443E+02 9.144000000E+02 3.244039371E+01
 1.060142200E+02 9.144000000E+02 3.241894220E+01
 1.060142269E+02 9.144000000E+02 3.241894212E+01
 1.105215157E+02 9.144000000E+02 3.236804848E+01
 1.105215229E+02 9.144000000E+02 3.236804836E+01
 1.152537426E+02 9.144000000E+02 3.228462621E+01
 1.152537502E+02 9.144000000E+02 3.228462603E+01
 1.202219345E+02 9.144000000E+02 3.216590966E+01
 1.202219424E+02 9.144000000E+02 3.216590942E+01
 1.254376499E+02 9.144000000E+02 3.200848319E+01
 1.254376582E+02 9.144000000E+02 3.200848289E+01
 1.309130100E+02 9.144000000E+02 3.180893498E+01
 1.309130187E+02 9.144000000E+02 3.180893461E+01
 1.366607223E+02 9.144000000E+02 3.156361863E+01
 1.366607315E+02 9.144000000E+02 3.156361818E+01
 1.426941000E+02 9.144000000E+02 3.126847610E+01
 1.426941097E+02 9.144000000E+02 3.126847557E+01
 1.490271174E+02 9.144000000E+02 3.091955688E+01
 1.490271275E+02 9.144000000E+02 3.091955626E+01
 1.556744071E+02 9.144000000E+02 3.051230896E+01
 1.556744177E+02 9.144000000E+02 3.051230824E+01
 1.626513295E+02 9.144000000E+02 3.004222726E+01
 1.626513407E+02 9.144000000E+02 3.004222644E+01
 1.699739807E+02 9.144000000E+02 2.950436759E+01
 1.699739924E+02 9.144000000E+02 2.950436666E+01
 1.776592482E+02 9.144000000E+02 2.889362512E+01
 1.776592605E+02 9.144000000E+02 2.889362407E+01
 1.857248313E+02 9.144000000E+02 2.820446779E+01
 1.857248439E+02 9.144000000E+02 2.820446664E+01
 1.939995296E+02 9.144000000E+02 2.744922112E+01
 1.939995422E+02 9.144000000E+02 2.744921990E+01
 2.022699353E+02 9.144000000E+02 2.664833280E+01
 2.022699479E+02 9.144000000E+02 2.664833152E+01
 2.105360628E+02 9.144000000E+02 2.580443008E+01
 2.105360754E+02 9.144000000E+02 2.580442874E+01
 2.187979385E+02 9.144000000E+02 2.491987081E+01
 2.187979511E+02 9.144000000E+02 2.491986941E+01
 2.270556257E+02 9.144000000E+02 2.399702871E+01
 2.270556382E+02 9.144000000E+02 2.399702725E+01
 2.353091810E+02 9.144000000E+02 2.303793595E+01
 2.353091935E+02 9.144000000E+02 2.303793444E+01
 2.435586800E+02 9.144000000E+02 2.204455771E+01
 2.435586926E+02 9.144000000E+02 2.204455615E+01
 2.518041952E+02 9.144000000E+02 2.101863593E+01
 2.518042077E+02 9.144000000E+02 2.101863432E+01
 2.600458129E+02 9.144000000E+02 1.996186150E+01
 2.600458255E+02 9.144000000E+02 1.996185985E+01
 2.682836100E+02 9.144000000E+02 1.887570496E+01
 2.682836225E+02 9.144000000E+02 1.887570327E+01
 2.765176772E+02 9.144000000E+02 1.776162584E+01
 2.765176897E+02 9.144000000E+02 1.776162411E+01
 2.847480979E+02 9.144000000E+02 1.662091948E+01
 2.847481104E+02 9.144000000E+02 1.662091770E+01
 2.929749591E+02 9.144000000E+02 1.545481945E+01
 2.929749716E+02 9.144000000E+02 1.545481764E+01
 3.011983384E+02 9.144000000E+02 1.426441265E+01
 3.011983509E+02 9.144000000E+02 1.426441080E+01
 3.094183167E+02 9.144000000E+02 1.305074459E+01
 3.094183293E+02 9.144000000E+02 1.305074271E+01
 3.176349649E+02 9.144000000E+02 1.181473168E+01
 3.176349774E+02 9.144000000E+02 1.181472976E+01
 3.258483555E+02 9.144000000E+02 1.055725368E+01
 3.258483680E+02 9.144000000E+02 1.055725173E+01
 3.340585486E+02 9.144000000E+02 9.279065905E+00
 3.340585611E+02 9.144000000E+02 9.279063928E+00
 3.422656011E+02 9.144000000E+02 7.980865178E+00
 3.422656136E+02 9.144000000E+02 7.980863171E+00
 3.504695631E+02 9.144000000E+02 6.663274934E+00
 3.504695756E+02 9.144000000E+02 6.663272899E+00
 3.586704691E+02 9.144000000E+02 5.326796901E+00
 3.586704816E+02 9.144000000E+02 5.326794838E+00
 3.668683833E+02 9.144000000E+02 3.972088190E+00
 3.668683957E+02 9.144000000E+02 3.972086099E+00
 3.750633312E+02 9.144000000E+02 2.599549635E+00
 3.750633437E+02 9.144000000E+02 2.599547518E+00
 3.832553031E+02 9.144000000E+02 1.209358913E+00
 3.832553156E+02 9.144000000E+02 1.209356770E+00
 3.914443342E+02 9.144000000E+02 -1.980513003E-01
 3.914443466E+02 9.144000000E+02 -1.980534693E-01
 3.996304347E+02 9.144000000E+02 -1.622407613E+00
 3.996304472E+02 9.144000000E+02 -1.622409808E+00
 4.078135803E+02 9.144000000E+02 -3.063644251E+00
 4.078135927E+02 9.144000000E+02 -3.063646471E+00
 4.159937652E+02 9.144000000E+02 -4.521590764E+00
 4.159937777E+02 9.144000000E+02 -4.521593009E+00
 4.241709750E+02 9.144000000E+02 -5.996132772E+00
 4.241709874E+02 9.144000000E+02 -5.996135043E+00
 4.323451626E+02 9.144000000E+02 -7.487337219E+00
 4.323451750E+02 9.144000000E+02 -7.487339515E+00
 4.405162881E+02 9.144000000E+02 -8.995230617E+00
 4.405163005E+02 9.144000000E+02 -8.995232938E+00
 4.486842989E+02 9.144000000E+02 -1.051990517E+01
 4.486843114E+02 9.144000000E+02 -1.051990752E+01
 4.568491386E+02 9.144000000E+02 -1.206147166E+01
 4.568491511E+02 9.144000000E+02 -1.206147404E+01
 4.650107186E+02 9.144000000E+02 -1.362020465E+01
 4.650107310E+02 9.144000000E+02 -1.362020705E+01
 4.731689554E+02 9.144000000E+02 -1.519634164E+01
 4.731689678E+02 9.144000000E+02 -1.519634406E+01
 4.813237420E+02 9.144000000E+02 -1.679023293E+01
 4.813237545E+02 9.144000000E+02 -1.679023538E+01
 4.894749866E+02 9.144000000E+02 -1.840214094E+01
 4.894749990E+02 9.144000000E+02 -1.840214342E+01
 4.976225628E+02 9.144000000E+02 -2.003248945E+01
 4.976225752E+02 9.144000000E+02 -2.003249196E+01
 5.057663164E+02 9.144000000E+02 -2.168182625E+01
 5.057663288E+02 9.144000000E+02 -2.168182879E+01
 5.139061315E+02 9.144000000E+02 -2.335049192E+01
 5.139061428E+02 9.144000000E+02 -2.335049426E+01
 5.213124488E+02 9.144000000E+02 -2.488694105E+01
 5.213124559E+02 9.144000000E+02 -2.488694253E+01
 5.259396196E+02 9.144000000E+02 -2.585575071E+01
 5.259396240E+02 9.144000000E+02 -2.585575164E+01
 5.288308701E+02 9.144000000E+02 -2.646473876E+01
 5.288308728E+02 9.144000000E+02 -2.646473934E+01
 5.306376202E+02 9.144000000E+02 -2.684669020E+01
 5.306376219E+02 9.144000000E+02 -2.684669056E+01
 5.317667283E+02 9.144000000E+02 -2.708593255E+01
 5.317667294E+02 9.144000000E+02 -2.708593277E+01
 5.324723849E+02 9.144000000E+02 -2.723562889E+01

ZONE T="SLICE_Y_0p9144_BINS01_KS_XXmm_FINAL_LAYER"
-999 -999 -999

ZONE T="SLICE_Y_0p9144_BINS03_KS_XXmm_FINAL_LAYER"
-999 -999 -999

ZONE T="SLICE_Y_0p9144_BINS07_KS_XXmm_FINAL_LAYER"
-999 -999 -999

ZONE T="SLICE_Y_0p9144_BINS15_KS_XXmm_FINAL_LAYER"
-999 -999 -999