#++++++++++++++++++++++++++++++++++++++++++++++++++++++++++++++++++++++++++++++++++++++++++++++++++++++++++++++++++++
#
#   IPW-3 Ice Shape DATA SUBMITTAL FORM for Test Case NACA0012_AE3932, May 18th 2026
#
#       NOMENCLATURE:
#             X_ICED [m]:  X-coordinate of the iced surface
#             Y_ICED [m]:  Y-coordinate of the iced surface
#             Z_ICED [m]:  Z-coordinate of the iced surface
#
#                XXmm:  Roughness height used for the case, in mm.
#                       In the zone name, use the format KS_XXmm.
#                       For example, if k_s = 1.5 mm, use KS_1p5mm. 
#                       For Variable roughness, use KS_VAR
#
#    FLOW CONDITIONS:
#                                   AOA: 4.0 deg
#                           Mach Number: 0.3151 [-]
#       Mean aerodynamic chord (M.A.C.): 0.5334 [m]
#                       Reynolds Number: 3.9795 million (based on MAC)
#                       Freestream Temp: 267.55 [K]
#                        Reference area: 0.97548 [m2]
#               Moment Reference Center: 0.13335, 0, 0 [m] (X, Y, Z)
#
#    ICING CONDITIONS:
#                           Icing Time: 420 [s]
#                                  LWC: 0.55 [g/m3]
#                                  MVD: 20 [μm]
#
#              NOTES: 1. Please use at least 5 decimal places in the numerical values
#                     2. If data are NOT provided, please fill data fields with a numerical value of "-999" 
#
#++++++++++++++++++++++++++++++++++++++++++++++++++++++++++++++++++++++++++++++++++++++++++++++++++++++++++++++++++++

AUXDATA NUM_LAYERS  = "insert the number of total ice layers"
                                              
VARIABLES = "X_ICED" "Y_ICED" "Z_ICED"

ZONE T="SLICE_Y_0p9144_BINS01_KS_XXmm_SINGLE_LAYER"
-999 -999 -999

ZONE T="SLICE_Y_0p9144_BINS03_KS_XXmm_SINGLE_LAYER"
-999 -999 -999

ZONE T="SLICE_Y_0p9144_BINS07_KS_XXmm_SINGLE_LAYER"
-999 -999 -999

ZONE T="SLICE_Y_0p9144_BINS15_KS_XXmm_SINGLE_LAYER"
 5.324723849E+02 9.144000000E+02 -2.723562889E+01
 5.324684758E+02 9.144000000E+02 -2.729149965E+01
 5.324645667E+02 9.144000000E+02 -2.734736971E+01
 5.324606573E+02 9.144000000E+02 -2.740323976E+01
 5.324567479E+02 9.144000000E+02 -2.745911050E+01
 5.324528386E+02 9.144000000E+02 -2.751498055E+01
 5.324489292E+02 9.144000000E+02 -2.757085129E+01
 5.324450212E+02 9.144000000E+02 -2.762672143E+01
 5.324411132E+02 9.144000000E+02 -2.768259227E+01
 5.324372072E+02 9.144000000E+02 -2.773846255E+01
 5.324333012E+02 9.144000000E+02 -2.779433353E+01
 5.324293952E+02 9.144000000E+02 -2.785020381E+01
 5.324254891E+02 9.144000000E+02 -2.790607479E+01
 5.324215832E+02 9.144000000E+02 -2.796194507E+01
 5.324176771E+02 9.144000000E+02 -2.801781605E+01
 5.324137712E+02 9.144000000E+02 -2.807368633E+01
 5.324098651E+02 9.144000000E+02 -2.812955731E+01
 5.324059611E+02 9.144000000E+02 -2.818542773E+01
 5.324020571E+02 9.144000000E+02 -2.824129885E+01
 5.323981545E+02 9.144000000E+02 -2.829716936E+01
 5.323942518E+02 9.144000000E+02 -2.835304057E+01
 5.323903491E+02 9.144000000E+02 -2.840891109E+01
 5.323864464E+02 9.144000000E+02 -2.846478230E+01
 5.323825335E+02 9.144000000E+02 -2.852065209E+01
 5.323786205E+02 9.144000000E+02 -2.857652258E+01
 5.321987170E+02 9.144000000E+02 -2.858904657E+01
 5.320188113E+02 9.144000000E+02 -2.860157071E+01
 5.317309610E+02 9.144000000E+02 -2.862154124E+01
 5.314431071E+02 9.144000000E+02 -2.864151203E+01
 5.309825436E+02 9.144000000E+02 -2.867342010E+01
 5.305219743E+02 9.144000000E+02 -2.870532858E+01
 5.297850532E+02 9.144000000E+02 -2.875610127E+01
 5.290481230E+02 9.144000000E+02 -2.880687459E+01
 5.278689954E+02 9.144000000E+02 -2.888732416E+01
 5.266898531E+02 9.144000000E+02 -2.896777473E+01
 5.248031369E+02 9.144000000E+02 -2.909484266E+01
 5.229163973E+02 9.144000000E+02 -2.922191217E+01
 5.210368211E+02 9.144000000E+02 -2.934627612E+01
 5.191572216E+02 9.144000000E+02 -2.947064161E+01
 5.172775035E+02 9.144000000E+02 -2.959284166E+01
 5.153977621E+02 9.144000000E+02 -2.971504322E+01
 5.135179108E+02 9.144000000E+02 -2.983517530E+01
 5.116380361E+02 9.144000000E+02 -2.995530886E+01
 5.097580508E+02 9.144000000E+02 -3.007332747E+01
 5.078780423E+02 9.144000000E+02 -3.019134754E+01
 5.059979300E+02 9.144000000E+02 -3.030732498E+01
 5.041177945E+02 9.144000000E+02 -3.042330385E+01
 5.022375624E+02 9.144000000E+02 -3.053732209E+01
 5.003573070E+02 9.144000000E+02 -3.065134174E+01
 4.984769512E+02 9.144000000E+02 -3.076330147E+01
 4.965965720E+02 9.144000000E+02 -3.087526258E+01
 4.947161006E+02 9.144000000E+02 -3.098526256E+01
 4.928356058E+02 9.144000000E+02 -3.109526390E+01
 4.909550195E+02 9.144000000E+02 -3.120328405E+01
 4.890744099E+02 9.144000000E+02 -3.131130554E+01
 4.871937140E+02 9.144000000E+02 -3.141739889E+01
 4.853129948E+02 9.144000000E+02 -3.152349356E+01
 4.834321922E+02 9.144000000E+02 -3.162767865E+01
 4.815513663E+02 9.144000000E+02 -3.173186503E+01
 4.796704593E+02 9.144000000E+02 -3.183414836E+01
 4.777895290E+02 9.144000000E+02 -3.193643295E+01
 4.759085212E+02 9.144000000E+02 -3.203684537E+01
 4.740274901E+02 9.144000000E+02 -3.213725903E+01
 4.721463838E+02 9.144000000E+02 -3.223580912E+01
 4.702652542E+02 9.144000000E+02 -3.233436043E+01
 4.683840535E+02 9.144000000E+02 -3.243109051E+01
 4.665028294E+02 9.144000000E+02 -3.252782180E+01
 4.646215336E+02 9.144000000E+02 -3.262268558E+01
 4.627402145E+02 9.144000000E+02 -3.271755054E+01
 4.608588282E+02 9.144000000E+02 -3.281060223E+01
 4.589774186E+02 9.144000000E+02 -3.290365507E+01
 4.570959461E+02 9.144000000E+02 -3.299494607E+01
 4.552144502E+02 9.144000000E+02 -3.308623821E+01
 4.533328889E+02 9.144000000E+02 -3.317568061E+01
 4.514513042E+02 9.144000000E+02 -3.326512413E+01
 4.495696620E+02 9.144000000E+02 -3.335284827E+01
 4.476879964E+02 9.144000000E+02 -3.344057350E+01
 4.458062694E+02 9.144000000E+02 -3.352645922E+01
 4.439245190E+02 9.144000000E+02 -3.361234600E+01
 4.420427144E+02 9.144000000E+02 -3.369651452E+01
 4.401608865E+02 9.144000000E+02 -3.378068408E+01
 4.382790040E+02 9.144000000E+02 -3.386309436E+01
 4.363970983E+02 9.144000000E+02 -3.394550565E+01
 4.345151389E+02 9.144000000E+02 -3.402613883E+01
 4.326331561E+02 9.144000000E+02 -3.410677300E+01
 4.307511241E+02 9.144000000E+02 -3.418569259E+01
 4.288690687E+02 9.144000000E+02 -3.426461315E+01
 4.269869655E+02 9.144000000E+02 -3.434181735E+01
 4.251048389E+02 9.144000000E+02 -3.441902250E+01
 4.232226626E+02 9.144000000E+02 -3.449442352E+01
 4.213404630E+02 9.144000000E+02 -3.456982548E+01
 4.194582189E+02 9.144000000E+02 -3.464351427E+01
 4.175759514E+02 9.144000000E+02 -3.471720398E+01
 4.156936405E+02 9.144000000E+02 -3.478916535E+01
 4.138113062E+02 9.144000000E+02 -3.486112762E+01
 4.119289301E+02 9.144000000E+02 -3.493136238E+01
 4.100465306E+02 9.144000000E+02 -3.500159802E+01
 4.081640905E+02 9.144000000E+02 -3.507009801E+01
 4.062816270E+02 9.144000000E+02 -3.513859886E+01
 4.043991244E+02 9.144000000E+02 -3.520535783E+01
 4.025165984E+02 9.144000000E+02 -3.527211762E+01
 4.006340346E+02 9.144000000E+02 -3.533712986E+01
 3.987514475E+02 9.144000000E+02 -3.540214290E+01
 3.968688231E+02 9.144000000E+02 -3.546537571E+01
 3.949861753E+02 9.144000000E+02 -3.552860930E+01
 3.931034930E+02 9.144000000E+02 -3.559009180E+01
 3.912207873E+02 9.144000000E+02 -3.565157506E+01
 3.893380483E+02 9.144000000E+02 -3.571129768E+01
 3.874552859E+02 9.144000000E+02 -3.577102104E+01
 3.855724914E+02 9.144000000E+02 -3.582896677E+01
 3.836896735E+02 9.144000000E+02 -3.588691322E+01
 3.818068248E+02 9.144000000E+02 -3.594307002E+01
 3.799239527E+02 9.144000000E+02 -3.599922753E+01
 3.780410513E+02 9.144000000E+02 -3.605359098E+01
 3.761581266E+02 9.144000000E+02 -3.610795511E+01
 3.742751739E+02 9.144000000E+02 -3.616051279E+01
 3.723921980E+02 9.144000000E+02 -3.621307112E+01
 3.705091952E+02 9.144000000E+02 -3.626380288E+01
 3.686261691E+02 9.144000000E+02 -3.631453526E+01
 3.667431175E+02 9.144000000E+02 -3.636341660E+01
 3.648600424E+02 9.144000000E+02 -3.641229855E+01
 3.629769429E+02 9.144000000E+02 -3.645930029E+01
 3.610938200E+02 9.144000000E+02 -3.650630260E+01
 3.592106745E+02 9.144000000E+02 -3.655142398E+01
 3.573275057E+02 9.144000000E+02 -3.659654591E+01
 3.554443157E+02 9.144000000E+02 -3.663977239E+01
 3.535611024E+02 9.144000000E+02 -3.668299941E+01
 3.516778706E+02 9.144000000E+02 -3.672436075E+01
 3.497946154E+02 9.144000000E+02 -3.676572260E+01
 3.479113412E+02 9.144000000E+02 -3.680510871E+01
 3.460280436E+02 9.144000000E+02 -3.684449531E+01
 3.441447289E+02 9.144000000E+02 -3.688189502E+01
 3.422613909E+02 9.144000000E+02 -3.691929519E+01
 3.403780377E+02 9.144000000E+02 -3.695470751E+01
 3.384946613E+02 9.144000000E+02 -3.699012027E+01
 3.366112714E+02 9.144000000E+02 -3.702352090E+01
 3.347278582E+02 9.144000000E+02 -3.705692195E+01
 3.328444332E+02 9.144000000E+02 -3.708827844E+01
 3.309609848E+02 9.144000000E+02 -3.711963533E+01
 3.290775259E+02 9.144000000E+02 -3.714888855E+01
 3.271940437E+02 9.144000000E+02 -3.717814214E+01
 3.253105535E+02 9.144000000E+02 -3.720530079E+01
 3.234270400E+02 9.144000000E+02 -3.723245978E+01
 3.215435202E+02 9.144000000E+02 -3.725748674E+01
 3.196599771E+02 9.144000000E+02 -3.728251401E+01
 3.177764293E+02 9.144000000E+02 -3.730533028E+01
 3.158928581E+02 9.144000000E+02 -3.732814683E+01
 3.140092849E+02 9.144000000E+02 -3.734876509E+01
 3.121256884E+02 9.144000000E+02 -3.736938360E+01
 3.102420920E+02 9.144000000E+02 -3.738776117E+01
 3.083584723E+02 9.144000000E+02 -3.740613896E+01
 3.064748547E+02 9.144000000E+02 -3.742219294E+01
 3.045912137E+02 9.144000000E+02 -3.743824713E+01
 3.027075779E+02 9.144000000E+02 -3.745198846E+01
 3.008239186E+02 9.144000000E+02 -3.746572997E+01
 2.989402668E+02 9.144000000E+02 -3.747708735E+01
 2.970565917E+02 9.144000000E+02 -3.748844486E+01
 2.951729268E+02 9.144000000E+02 -3.749736926E+01
 2.932892386E+02 9.144000000E+02 -3.750629378E+01
 2.914055638E+02 9.144000000E+02 -3.751277778E+01
 2.895218656E+02 9.144000000E+02 -3.751926187E+01
 2.876381836E+02 9.144000000E+02 -3.752318470E+01
 2.857544783E+02 9.144000000E+02 -3.752710759E+01
 2.838707928E+02 9.144000000E+02 -3.752848522E+01
 2.819870840E+02 9.144000000E+02 -3.752986288E+01
 2.801033984E+02 9.144000000E+02 -3.752861882E+01
 2.782196894E+02 9.144000000E+02 -3.752737475E+01
 2.763360075E+02 9.144000000E+02 -3.752343995E+01
 2.744523023E+02 9.144000000E+02 -3.751950510E+01
 2.725686280E+02 9.144000000E+02 -3.751287168E+01
 2.706849303E+02 9.144000000E+02 -3.750623818E+01
 2.688012681E+02 9.144000000E+02 -3.749676100E+01
 2.669175826E+02 9.144000000E+02 -3.748728370E+01
 2.650339367E+02 9.144000000E+02 -3.747498979E+01
 2.631502675E+02 9.144000000E+02 -3.746269573E+01
 2.612666429E+02 9.144000000E+02 -3.744747706E+01
 2.593829950E+02 9.144000000E+02 -3.743225821E+01
 2.574993970E+02 9.144000000E+02 -3.741405020E+01
 2.556157757E+02 9.144000000E+02 -3.739584196E+01
 2.537322092E+02 9.144000000E+02 -3.737461936E+01
 2.518486194E+02 9.144000000E+02 -3.735339650E+01
 2.499650914E+02 9.144000000E+02 -3.732900125E+01
 2.480815400E+02 9.144000000E+02 -3.730460571E+01
 2.461980554E+02 9.144000000E+02 -3.727706256E+01
 2.443145474E+02 9.144000000E+02 -3.724951907E+01
 2.424311137E+02 9.144000000E+02 -3.721869541E+01
 2.405476565E+02 9.144000000E+02 -3.718787137E+01
 2.386642806E+02 9.144000000E+02 -3.715369553E+01
 2.367808813E+02 9.144000000E+02 -3.711951926E+01
 2.348975698E+02 9.144000000E+02 -3.708195875E+01
 2.330142349E+02 9.144000000E+02 -3.704439778E+01
 2.311309979E+02 9.144000000E+02 -3.700327160E+01
 2.292477376E+02 9.144000000E+02 -3.696214491E+01
 2.273645816E+02 9.144000000E+02 -3.691746352E+01
 2.254814023E+02 9.144000000E+02 -3.687278158E+01
 2.235983370E+02 9.144000000E+02 -3.682442714E+01
 2.217152484E+02 9.144000000E+02 -3.677607210E+01
 2.198322850E+02 9.144000000E+02 -3.672390339E+01
 2.179492982E+02 9.144000000E+02 -3.667173402E+01
 2.160664448E+02 9.144000000E+02 -3.661573423E+01
 2.141835680E+02 9.144000000E+02 -3.655973374E+01
 2.123008370E+02 9.144000000E+02 -3.649976071E+01
 2.104180826E+02 9.144000000E+02 -3.643978693E+01
 2.085354866E+02 9.144000000E+02 -3.637571611E+01
 2.066528672E+02 9.144000000E+02 -3.631164451E+01
 2.047704170E+02 9.144000000E+02 -3.624342535E+01
 2.028879434E+02 9.144000000E+02 -3.617520535E+01
 2.010056531E+02 9.144000000E+02 -3.610270607E+01
 1.991233394E+02 9.144000000E+02 -3.603020589E+01
 1.972412253E+02 9.144000000E+02 -3.595326831E+01
 1.953590879E+02 9.144000000E+02 -3.587632978E+01
 1.934771629E+02 9.144000000E+02 -3.579489672E+01
 1.915952147E+02 9.144000000E+02 -3.571346265E+01
 1.897134955E+02 9.144000000E+02 -3.562740592E+01
 1.878317530E+02 9.144000000E+02 -3.554134813E+01
 1.859502588E+02 9.144000000E+02 -3.545050520E+01
 1.840687412E+02 9.144000000E+02 -3.535966114E+01
 1.821874912E+02 9.144000000E+02 -3.526389436E+01
 1.803062179E+02 9.144000000E+02 -3.516812640E+01
 1.784252302E+02 9.144000000E+02 -3.506733984E+01
 1.765442191E+02 9.144000000E+02 -3.496655204E+01
 1.746635158E+02 9.144000000E+02 -3.486059094E+01
 1.727827892E+02 9.144000000E+02 -3.475462852E+01
 1.709023932E+02 9.144000000E+02 -3.464334589E+01
 1.690219740E+02 9.144000000E+02 -3.453206188E+01
 1.671419106E+02 9.144000000E+02 -3.441529402E+01
 1.652618239E+02 9.144000000E+02 -3.429852471E+01
 1.633821029E+02 9.144000000E+02 -3.417636246E+01
 1.615023586E+02 9.144000000E+02 -3.405419929E+01
 1.596228137E+02 9.144000000E+02 -3.392922697E+01
 1.577432454E+02 9.144000000E+02 -3.380425595E+01
 1.558639386E+02 9.144000000E+02 -3.367546638E+01
 1.539846086E+02 9.144000000E+02 -3.354667586E+01
 1.521056694E+02 9.144000000E+02 -3.341232438E+01
 1.502267069E+02 9.144000000E+02 -3.327797149E+01
 1.483481542E+02 9.144000000E+02 -3.313796997E+01
 1.464695781E+02 9.144000000E+02 -3.299796703E+01
 1.445914480E+02 9.144000000E+02 -3.285201764E+01
 1.427132946E+02 9.144000000E+02 -3.270606659E+01
 1.408355921E+02 9.144000000E+02 -3.255426681E+01
 1.389578663E+02 9.144000000E+02 -3.240246556E+01
 1.370806154E+02 9.144000000E+02 -3.224466881E+01
 1.352033412E+02 9.144000000E+02 -3.208687061E+01
 1.333265970E+02 9.144000000E+02 -3.192259543E+01
 1.314498295E+02 9.144000000E+02 -3.175831843E+01
 1.295736078E+02 9.144000000E+02 -3.158754960E+01
 1.276973628E+02 9.144000000E+02 -3.141677920E+01
 1.258216892E+02 9.144000000E+02 -3.123941477E+01
 1.239459923E+02 9.144000000E+02 -3.106204883E+01
 1.221342868E+02 9.144000000E+02 -3.088404342E+01
 1.203225588E+02 9.144000000E+02 -3.070603611E+01
 1.185976686E+02 9.144000000E+02 -3.053031359E+01
 1.168727569E+02 9.144000000E+02 -3.035458942E+01
 1.152304605E+02 9.144000000E+02 -3.018201924E+01
 1.135881437E+02 9.144000000E+02 -3.000944774E+01
 1.120244855E+02 9.144000000E+02 -2.984017521E+01
 1.104608078E+02 9.144000000E+02 -2.967090114E+01
 1.089721169E+02 9.144000000E+02 -2.950435057E+01
 1.074834075E+02 9.144000000E+02 -2.933779821E+01
 1.060660954E+02 9.144000000E+02 -2.917417906E+01
 1.046487656E+02 9.144000000E+02 -2.901055824E+01
 1.032993513E+02 9.144000000E+02 -2.885046017E+01
 1.019499202E+02 9.144000000E+02 -2.869036113E+01
 1.006650644E+02 9.144000000E+02 -2.853458627E+01
 9.938019252E+01 9.144000000E+02 -2.837881090E+01
 9.815680781E+01 9.144000000E+02 -2.822734033E+01
 9.693340776E+01 9.144000000E+02 -2.807586880E+01
 9.576861077E+01 9.144000000E+02 -2.792817990E+01
 9.460379922E+01 9.144000000E+02 -2.778048968E+01
 9.349482414E+01 9.144000000E+02 -2.763633982E+01
 9.238583518E+01 9.144000000E+02 -2.749218864E+01
 9.133011370E+01 9.144000000E+02 -2.735104500E+01
 9.027437893E+01 9.144000000E+02 -2.720990062E+01
 8.926923770E+01 9.144000000E+02 -2.707259104E+01
 8.826408354E+01 9.144000000E+02 -2.693528244E+01
 8.730666618E+01 9.144000000E+02 -2.680435739E+01
 8.634926069E+01 9.144000000E+02 -2.667343445E+01
 8.539257998E+01 9.144000000E+02 -2.654062771E+01
 8.443591143E+01 9.144000000E+02 -2.640782170E+01
 8.347949227E+01 9.144000000E+02 -2.627239419E+01
 8.252308521E+01 9.144000000E+02 -2.613696790E+01
 8.156692867E+01 9.144000000E+02 -2.599889631E+01
 8.061078418E+01 9.144000000E+02 -2.586082629E+01
 7.965491004E+01 9.144000000E+02 -2.571995844E+01
 7.869904794E+01 9.144000000E+02 -2.557909222E+01
 7.774346633E+01 9.144000000E+02 -2.543533387E+01
 7.678789675E+01 9.144000000E+02 -2.529157719E+01
 7.583262775E+01 9.144000000E+02 -2.514481922E+01
 7.487737079E+01 9.144000000E+02 -2.499806296E+01
 7.392242832E+01 9.144000000E+02 -2.484821288E+01
 7.296749790E+01 9.144000000E+02 -2.469836452E+01
 7.201280388E+01 9.144000000E+02 -2.454579248E+01
 7.105812214E+01 9.144000000E+02 -2.439322095E+01
 7.010346240E+01 9.144000000E+02 -2.423903442E+01
 6.914881540E+01 9.144000000E+02 -2.408484607E+01
 6.819408962E+01 9.144000000E+02 -2.392934493E+01
 6.723937642E+01 9.144000000E+02 -2.377384299E+01
 6.628476870E+01 9.144000000E+02 -2.361592292E+01
 6.533017315E+01 9.144000000E+02 -2.345800428E+01
 6.437579698E+01 9.144000000E+02 -2.329699198E+01
 6.342143292E+01 9.144000000E+02 -2.313598142E+01
 6.246734688E+01 9.144000000E+02 -2.297155142E+01
 6.151327298E+01 9.144000000E+02 -2.280712312E+01
 6.055947929E+01 9.144000000E+02 -2.263920826E+01
 5.960569774E+01 9.144000000E+02 -2.247129514E+01
 5.865216360E+01 9.144000000E+02 -2.229982938E+01
 5.769864161E+01 9.144000000E+02 -2.212836537E+01
 5.674532764E+01 9.144000000E+02 -2.195342493E+01
 5.579202614E+01 9.144000000E+02 -2.177848499E+01
 5.483866247E+01 9.144000000E+02 -2.160104217E+01
 5.388531202E+01 9.144000000E+02 -2.142359670E+01
 5.293147101E+01 9.144000000E+02 -2.124523156E+01
 5.197764338E+01 9.144000000E+02 -2.106686350E+01
 5.102336981E+01 9.144000000E+02 -2.088705909E+01
 5.006910902E+01 9.144000000E+02 -2.070725456E+01
 4.911469040E+01 9.144000000E+02 -2.052440354E+01
 4.816028425E+01 9.144000000E+02 -2.034155381E+01
 4.720573513E+01 9.144000000E+02 -2.015511468E+01
 4.625119845E+01 9.144000000E+02 -1.996867708E+01
 4.529649423E+01 9.144000000E+02 -1.977841522E+01
 4.434180251E+01 9.144000000E+02 -1.958815489E+01
 4.338691615E+01 9.144000000E+02 -1.939376432E+01
 4.243204236E+01 9.144000000E+02 -1.919937520E+01
 4.147700855E+01 9.144000000E+02 -1.900048141E+01
 4.052198740E+01 9.144000000E+02 -1.880158895E+01
 3.956667690E+01 9.144000000E+02 -1.859814173E+01
 3.861137916E+01 9.144000000E+02 -1.839469568E+01
 3.765521453E+01 9.144000000E+02 -1.818770610E+01
 3.669906375E+01 9.144000000E+02 -1.798071436E+01
 3.574095756E+01 9.144000000E+02 -1.777291277E+01
 3.478286745E+01 9.144000000E+02 -1.756510235E+01
 3.382220876E+01 9.144000000E+02 -1.735738425E+01
 3.286156571E+01 9.144000000E+02 -1.714965967E+01
 3.189870119E+01 9.144000000E+02 -1.693975376E+01
 3.093585040E+01 9.144000000E+02 -1.672984799E+01
 2.997064244E+01 9.144000000E+02 -1.651629564E+01
 2.900544815E+01 9.144000000E+02 -1.630274413E+01
 2.803726655E+01 9.144000000E+02 -1.608515321E+01
 2.706909925E+01 9.144000000E+02 -1.586756188E+01
 2.609769175E+01 9.144000000E+02 -1.564508547E+01
 2.512629935E+01 9.144000000E+02 -1.542260720E+01
 2.415135836E+01 9.144000000E+02 -1.519444679E+01
 2.317643361E+01 9.144000000E+02 -1.496628241E+01
 2.219649738E+01 9.144000000E+02 -1.473268569E+01
 2.121658004E+01 9.144000000E+02 -1.449907967E+01
 2.022793967E+01 9.144000000E+02 -1.426439491E+01
 1.923932344E+01 9.144000000E+02 -1.402969039E+01
 1.823624895E+01 9.144000000E+02 -1.380269165E+01
 1.723320201E+01 9.144000000E+02 -1.357566864E+01
 1.621312722E+01 9.144000000E+02 -1.335491879E+01
 1.519307892E+01 9.144000000E+02 -1.313415084E+01
 1.415542869E+01 9.144000000E+02 -1.290950365E+01
 1.311780366E+01 9.144000000E+02 -1.268484498E+01
 1.205997974E+01 9.144000000E+02 -1.245016375E+01
 1.100218035E+01 9.144000000E+02 -1.221547627E+01
 9.919974006E+00 9.144000000E+02 -1.196759747E+01
 8.837791205E+00 9.144000000E+02 -1.171971801E+01
 7.721150403E+00 9.144000000E+02 -1.145491355E+01
 6.604532752E+00 9.144000000E+02 -1.119011317E+01
 5.419722389E+00 9.144000000E+02 -1.093309311E+01
 4.238401351E+00 9.144000000E+02 -1.067095786E+01
 2.663107946E+00 9.144000000E+02 -1.081374364E+01
 1.090835359E+00 9.144000000E+02 -1.095303530E+01
 -3.960656164E-01 9.144000000E+02 -1.075478584E+01
 -1.890023549E+00 9.144000000E+02 -1.056591884E+01
 -2.826315278E+00 9.144000000E+02 -9.719347180E+00
 -3.762791265E+00 9.144000000E+02 -8.872926303E+00
 -4.497029936E+00 9.144000000E+02 -7.882739176E+00
 -5.231627438E+00 9.144000000E+02 -6.892806734E+00
 -5.958943617E+00 9.144000000E+02 -5.963931883E+00
 -6.691482340E+00 9.144000000E+02 -5.038962996E+00
 -6.906014107E+00 9.144000000E+02 -3.796062493E+00
 -7.122590832E+00 9.144000000E+02 -2.553682131E+00
 -9.136488931E+00 9.144000000E+02 -2.356846330E+00
 -1.114135185E+01 9.144000000E+02 -2.154308779E+00
 -1.339759409E+01 9.144000000E+02 -1.693274347E+00
 -1.565213595E+01 9.144000000E+02 -1.231670783E+00
 -1.565191690E+01 9.144000000E+02 3.017519733E-01
 -1.565267817E+01 9.144000000E+02 1.834606341E+00
 -1.576698303E+01 9.144000000E+02 3.278357188E+00
 -1.588297671E+01 9.144000000E+02 4.721657799E+00
 -1.585363344E+01 9.144000000E+02 6.154926176E+00
 -1.582450339E+01 9.144000000E+02 7.588202869E+00
 -1.547697158E+01 9.144000000E+02 8.984415304E+00
 -1.512948211E+01 9.144000000E+02 1.038067271E+01
 -1.447314745E+01 9.144000000E+02 1.165569406E+01
 -1.381676412E+01 9.144000000E+02 1.293075385E+01
 -1.292239416E+01 9.144000000E+02 1.402715136E+01
 -1.202794960E+01 9.144000000E+02 1.512356825E+01
 -1.095187902E+01 9.144000000E+02 1.600534981E+01
 -9.875740956E+00 9.144000000E+02 1.688713641E+01
 -8.676393689E+00 9.144000000E+02 1.752994796E+01
 -7.476993843E+00 9.144000000E+02 1.817275059E+01
 -6.262464201E+00 9.144000000E+02 1.861925934E+01
 -5.047887688E+00 9.144000000E+02 1.906575900E+01
 -3.890274225E+00 9.144000000E+02 1.939154101E+01
 -2.732621606E+00 9.144000000E+02 1.971730435E+01
 -1.622528071E+00 9.144000000E+02 1.995561939E+01
 -5.124085030E-01 9.144000000E+02 2.019391019E+01
 5.571117236E-01 9.144000000E+02 2.037730492E+01
 1.626649632E+00 9.144000000E+02 2.056067613E+01
 2.677595570E+00 9.144000000E+02 2.073663580E+01
 3.728552508E+00 9.144000000E+02 2.091257128E+01
 4.773075726E+00 9.144000000E+02 2.109836906E+01
 5.817602899E+00 9.144000000E+02 2.128414432E+01
 6.876842090E+00 9.144000000E+02 2.150145030E+01
 7.936080454E+00 9.144000000E+02 2.171873757E+01
 8.956843510E+00 9.144000000E+02 2.194326599E+01
 9.977602101E+00 9.144000000E+02 2.216777879E+01
 1.096379783E+01 9.144000000E+02 2.239908760E+01
 1.194998623E+01 9.144000000E+02 2.263038445E+01
 1.291434317E+01 9.144000000E+02 2.286667050E+01
 1.387869092E+01 9.144000000E+02 2.310294753E+01
 1.483025569E+01 9.144000000E+02 2.334044111E+01
 1.578181023E+01 9.144000000E+02 2.357792765E+01
 1.672643968E+01 9.144000000E+02 2.381309249E+01
 1.767105806E+01 9.144000000E+02 2.404825234E+01
 1.861224443E+01 9.144000000E+02 2.427793948E+01
 1.955341934E+01 9.144000000E+02 2.450762279E+01
 2.049289192E+01 9.144000000E+02 2.473131008E+01
 2.143235288E+01 9.144000000E+02 2.495499423E+01
 2.237136999E+01 9.144000000E+02 2.517194169E+01
 2.331037526E+01 9.144000000E+02 2.538888688E+01
 2.424981919E+01 9.144000000E+02 2.559801208E+01
 2.518925123E+01 9.144000000E+02 2.580713543E+01
 2.612952610E+01 9.144000000E+02 2.600819334E+01
 2.706978911E+01 9.144000000E+02 2.620924948E+01
 2.801117146E+01 9.144000000E+02 2.640204225E+01
 2.895254193E+01 9.144000000E+02 2.659483361E+01
 2.989499226E+01 9.144000000E+02 2.678014153E+01
 3.083743070E+01 9.144000000E+02 2.696544831E+01
 3.178096277E+01 9.144000000E+02 2.714361567E+01
 3.272448304E+01 9.144000000E+02 2.732178151E+01
 3.366881258E+01 9.144000000E+02 2.749462628E+01
 3.461312969E+01 9.144000000E+02 2.766747307E+01
 3.555806757E+01 9.144000000E+02 2.783652155E+01
 3.650299309E+01 9.144000000E+02 2.800557228E+01
 3.744937533E+01 9.144000000E+02 2.816629872E+01
 3.839574599E+01 9.144000000E+02 2.832702324E+01
 3.934360013E+01 9.144000000E+02 2.847882878E+01
 4.029144266E+01 9.144000000E+02 2.863063249E+01
 4.124060597E+01 9.144000000E+02 2.877402496E+01
 4.218975766E+01 9.144000000E+02 2.891741571E+01
 4.314008264E+01 9.144000000E+02 2.905289569E+01
 4.409039599E+01 9.144000000E+02 2.918837404E+01
 4.504175223E+01 9.144000000E+02 2.931641195E+01
 4.599309683E+01 9.144000000E+02 2.944444831E+01
 4.694539229E+01 9.144000000E+02 2.956530253E+01
 4.789767610E+01 9.144000000E+02 2.968615529E+01
 4.885081007E+01 9.144000000E+02 2.980020811E+01
 4.980393237E+01 9.144000000E+02 2.991425956E+01
 5.075782243E+01 9.144000000E+02 3.002180563E+01
 5.171170081E+01 9.144000000E+02 3.012935040E+01
 5.266626882E+01 9.144000000E+02 3.023070298E+01
 5.362082514E+01 9.144000000E+02 3.033205433E+01
 5.457600077E+01 9.144000000E+02 3.042751080E+01
 5.553116470E+01 9.144000000E+02 3.052296612E+01
 5.648689212E+01 9.144000000E+02 3.061272983E+01
 5.744260783E+01 9.144000000E+02 3.070249245E+01
 5.839883411E+01 9.144000000E+02 3.078677605E+01
 5.935504868E+01 9.144000000E+02 3.087105864E+01
 6.031172475E+01 9.144000000E+02 3.095007315E+01
 6.126838912E+01 9.144000000E+02 3.102908672E+01
 6.222547034E+01 9.144000000E+02 3.110303235E+01
 6.318253985E+01 9.144000000E+02 3.117697710E+01
 6.413998464E+01 9.144000000E+02 3.124605576E+01
 6.509741772E+01 9.144000000E+02 3.131513359E+01
 6.605518825E+01 9.144000000E+02 3.137953876E+01
 6.701294706E+01 9.144000000E+02 3.144394315E+01
 6.797101467E+01 9.144000000E+02 3.150376672E+01
 6.892907055E+01 9.144000000E+02 3.156358956E+01
 6.988740202E+01 9.144000000E+02 3.161902614E+01
 7.084572175E+01 9.144000000E+02 3.167446204E+01
 7.180429170E+01 9.144000000E+02 3.172560943E+01
 7.276284992E+01 9.144000000E+02 3.177675620E+01
 7.372162992E+01 9.144000000E+02 3.182380219E+01
 7.468039818E+01 9.144000000E+02 3.187084760E+01
 7.563936549E+01 9.144000000E+02 3.191390702E+01
 7.659832106E+01 9.144000000E+02 3.195696592E+01
 7.755745536E+01 9.144000000E+02 3.199612967E+01
 7.851657793E+01 9.144000000E+02 3.203529294E+01
 7.947585887E+01 9.144000000E+02 3.207068325E+01
 8.043512808E+01 9.144000000E+02 3.210607312E+01
 8.139453736E+01 9.144000000E+02 3.213779455E+01
 8.235393489E+01 9.144000000E+02 3.216951558E+01
 8.331345657E+01 9.144000000E+02 3.219762975E+01
 8.427296652E+01 9.144000000E+02 3.222574358E+01
 8.523258129E+01 9.144000000E+02 3.225047711E+01
 8.619218433E+01 9.144000000E+02 3.227521034E+01
 8.715188119E+01 9.144000000E+02 3.229652546E+01
 8.811156631E+01 9.144000000E+02 3.231784032E+01
 8.907131875E+01 9.144000000E+02 3.233587154E+01
 9.003108292E+01 9.144000000E+02 3.235390299E+01
 9.095807874E+01 9.144000000E+02 3.236825900E+01
 9.188506307E+01 9.144000000E+02 3.238261483E+01
 9.285845250E+01 9.144000000E+02 3.239452109E+01
 9.383182986E+01 9.144000000E+02 3.240642720E+01
 9.485392402E+01 9.144000000E+02 3.241560245E+01
 9.587600552E+01 9.144000000E+02 3.242477759E+01
 9.694923097E+01 9.144000000E+02 3.243077199E+01
 9.802244311E+01 9.144000000E+02 3.243676631E+01
 9.914934495E+01 9.144000000E+02 3.243910944E+01
 1.002762328E+02 9.144000000E+02 3.244145255E+01
 1.014594810E+02 9.144000000E+02 3.243976712E+01
 1.026427145E+02 9.144000000E+02 3.243808172E+01
 1.038851107E+02 9.144000000E+02 3.243183061E+01
 1.051274914E+02 9.144000000E+02 3.242557958E+01
 1.064319743E+02 9.144000000E+02 3.241420643E+01
 1.077364410E+02 9.144000000E+02 3.240283343E+01
 1.091060940E+02 9.144000000E+02 3.238577837E+01
 1.104757301E+02 9.144000000E+02 3.236872353E+01
 1.119137849E+02 9.144000000E+02 3.234520237E+01
 1.133518219E+02 9.144000000E+02 3.232168149E+01
 1.148616737E+02 9.144000000E+02 3.229119918E+01
 1.163715068E+02 9.144000000E+02 3.226071725E+01
 1.179567100E+02 9.144000000E+02 3.222234982E+01
 1.195418936E+02 9.144000000E+02 3.218398287E+01
 1.212061818E+02 9.144000000E+02 3.213701712E+01
 1.228704494E+02 9.144000000E+02 3.209005195E+01
 1.246177352E+02 9.144000000E+02 3.203357254E+01
 1.263649993E+02 9.144000000E+02 3.197709384E+01
 1.281993876E+02 9.144000000E+02 3.191018106E+01
 1.300337531E+02 9.144000000E+02 3.184326911E+01
 1.319258375E+02 9.144000000E+02 3.176634547E+01
 1.338178985E+02 9.144000000E+02 3.168942278E+01
 1.357096526E+02 9.144000000E+02 3.160476127E+01
 1.376013833E+02 9.144000000E+02 3.152010082E+01
 1.394927874E+02 9.144000000E+02 3.142795041E+01
 1.413841681E+02 9.144000000E+02 3.133580115E+01
 1.432752051E+02 9.144000000E+02 3.123639976E+01
 1.451662186E+02 9.144000000E+02 3.113699960E+01
 1.470568748E+02 9.144000000E+02 3.103060197E+01
 1.489475075E+02 9.144000000E+02 3.092420567E+01
 1.508377705E+02 9.144000000E+02 3.081103751E+01
 1.527280101E+02 9.144000000E+02 3.069787075E+01
 1.546178697E+02 9.144000000E+02 3.057815405E+01
 1.565077058E+02 9.144000000E+02 3.045843885E+01
 1.583971537E+02 9.144000000E+02 3.033239164E+01
 1.602865781E+02 9.144000000E+02 3.020634600E+01
 1.621756053E+02 9.144000000E+02 3.007414285E+01
 1.640646091E+02 9.144000000E+02 2.994194133E+01
 1.659532089E+02 9.144000000E+02 2.980376677E+01
 1.678417852E+02 9.144000000E+02 2.966559392E+01
 1.697299521E+02 9.144000000E+02 2.952162433E+01
 1.716180956E+02 9.144000000E+02 2.937765652E+01
 1.735058241E+02 9.144000000E+02 2.922804878E+01
 1.753935292E+02 9.144000000E+02 2.907844289E+01
 1.772808179E+02 9.144000000E+02 2.892338621E+01
 1.791680832E+02 9.144000000E+02 2.876833145E+01
 1.810549295E+02 9.144000000E+02 2.860798130E+01
 1.829417524E+02 9.144000000E+02 2.844763314E+01
 1.848281546E+02 9.144000000E+02 2.828214033E+01
 1.867145334E+02 9.144000000E+02 2.811664958E+01
 1.886004921E+02 9.144000000E+02 2.794617609E+01
 1.904864274E+02 9.144000000E+02 2.777570472E+01
 1.923719371E+02 9.144000000E+02 2.760033572E+01
 1.942574235E+02 9.144000000E+02 2.742496890E+01
 1.961424854E+02 9.144000000E+02 2.724484915E+01
 1.980275239E+02 9.144000000E+02 2.706473163E+01
 1.999121415E+02 9.144000000E+02 2.688002242E+01
 2.017967358E+02 9.144000000E+02 2.669531550E+01
 2.036809113E+02 9.144000000E+02 2.650614908E+01
 2.055650635E+02 9.144000000E+02 2.631698500E+01