#+++++++++++++++++++++++++++++++++++++++++++++++++++++++++++++++++++++++++++++++++++++++++++++++++++++++++++++++++++++++++++++++++
#
#   IPW-3 Cut/Slice DATA SUBMITTAL FORM for Test Case NACA0012_AE3932, May 18th 2026
#
#       NOMENCLATURE:
#                  X [m]:  X-coordinate of the surface (clean for reference)
#                  Y [m]:  Y-coordinate of the surface (clean for reference)
#                  Z [m]:  Z-coordinate of the surface (clean for reference)
#                 Cp [-]:  Pressure coefficient
#            HTC [W/m2K]:  Convective Heat Transfer Coefficient (on the rough surface)
#               Beta [-]:  Collection efficiency
#                 Ts [K]:  Surface temperature
#                 FF [-]:  Freezing fraction
#                  k [m]:  Surface roughness height if variable (OPTIONAL)
#         RhoIce [kg/m3]:  Ice density (OPTIONAL)
#      HTC_CLEAN [W/m2K]:  Convective Heat Transfer Coefficient on the surface without roughness (OPTIONAL)
#
#                XXmm:  Roughness height used for the case, in mm.
#                       In the zone name, use the format KS_XXmm.
#                       For example, if k_s = 1.5 mm, use KS_1p5mm. 
#                       For Variable roughness, use KS_VAR
#
#    FLOW CONDITIONS:
#                                   AOA: 4.0 deg
#                           Mach Number: 0.3151 [-]
#       Mean aerodynamic chord (M.A.C.): 0.5334 [m]
#                       Reynolds Number: 3.9795 million (based on MAC)
#                       Freestream Temp: 267.55 [K]
#                        Reference area: 0.97548 [m2]
#               Moment Reference Center: 0.13335, 0, 0 [m] (X, Y, Z)
#
#    ICING CONDITIONS:
#                           Icing Time: 420 [s]
#                                  LWC: 0.55 [g/m3]
#                                  MVD: 20 [μm]
#
#              NOTES: 1. Please use at least 5 decimal places in the numerical values
#                     2. If data are NOT provided, please fill data fields with a numerical value of "-999" 
#
#++++++++++++++++++++++++++++++++++++++++++++++++++++++++++++++++++++++++++++++++++++++++++++++++++++++++++++++++++++

                                                    <- Optional ->                 
VARIABLES = "X" "Y" "Z" "Cp" "HTC" "Beta" "Ts" "FF" "k" "RhoIce" "HTC_CLEAN"

ZONE T="SLICE_Y_0p9144_BINS15_KS_1p0668mm_CUTDATA"
5.324723721E-01 9.143999815E-01 -2.723562904E-02 9.641402215E-02 2.952901917E+02 2.337797689E-08 2.628059998E+02 0.000000000E+00
5.322237611E-01 9.143999815E-01 -2.718285844E-02 1.051899120E-01 1.561709595E+02 1.332167976E-08 2.628514709E+02 0.000000000E+00
5.322237611E-01 9.143999815E-01 -2.718285844E-02 1.051899120E-01 1.561699371E+02 1.332160693E-08 2.628514709E+02 0.000000000E+00
5.318259001E-01 9.143999815E-01 -2.709846944E-02 1.018712372E-01 4.494228745E+01 2.472319682E-09 2.628342896E+02 0.000000000E+00
5.318259001E-01 9.143999815E-01 -2.709846944E-02 1.018712372E-01 4.494147491E+01 2.472241079E-09 2.628342896E+02 0.000000000E+00
5.311893225E-01 9.143999815E-01 -2.696358971E-02 9.572663903E-02 4.362116623E+01 5.370814904E-10 2.628024292E+02 0.000000000E+00
5.311893225E-01 9.143999815E-01 -2.696358785E-02 9.572663903E-02 4.362115479E+01 5.370674461E-10 2.628024292E+02 0.000000000E+00
5.301707983E-01 9.143999815E-01 -2.674788423E-02 9.483598918E-02 4.064050293E+01 4.117510222E-10 2.627978210E+02 0.000000000E+00
5.301707983E-01 9.143999815E-01 -2.674788237E-02 9.483598918E-02 4.064048004E+01 4.117501062E-10 2.627978210E+02 0.000000000E+00
5.285409093E-01 9.143999815E-01 -2.640357241E-02 9.211477637E-02 3.946448898E+01 1.477683254E-10 2.627837219E+02 0.000000000E+00
5.285409093E-01 9.143999815E-01 -2.640357055E-02 9.211477637E-02 3.946448135E+01 1.477664102E-10 2.627837219E+02 0.000000000E+00
5.260180831E-01 9.143999815E-01 -2.587223984E-02 8.806560189E-02 4.073364258E+01 2.132557152E-11 2.627626953E+02 0.000000000E+00
5.260180831E-01 9.143999815E-01 -2.587223612E-02 8.806560189E-02 4.073365021E+01 2.132466079E-11 2.627626953E+02 0.000000000E+00
5.234947801E-01 9.143999815E-01 -2.534301579E-02 8.329700679E-02 4.288737488E+01 5.859968543E-13 2.627379761E+02 0.000000000E+00
5.234947801E-01 9.143999815E-01 -2.534301206E-02 8.329700679E-02 4.288739014E+01 5.858473429E-13 2.627379761E+02 0.000000000E+00
5.209710598E-01 9.143999815E-01 -2.481572516E-02 7.841385156E-02 4.568991852E+01 5.308910118E-14 2.627126465E+02 0.000000000E+00
5.209710598E-01 9.143999815E-01 -2.481572144E-02 7.841385156E-02 4.568993759E+01 5.308512012E-14 2.627126465E+02 0.000000000E+00
5.184469223E-01 9.143999815E-01 -2.429043129E-02 7.357750088E-02 4.891537476E+01 1.799689632E-15 2.626875305E+02 0.000000000E+00
5.184469223E-01 9.143999815E-01 -2.429042757E-02 7.357750088E-02 4.891539764E+01 1.799304868E-15 2.626875305E+02 0.000000000E+00
5.159224272E-01 9.143999815E-01 -2.376710065E-02 6.875963509E-02 5.224476242E+01 1.711600662E-14 2.626625366E+02 0.000000000E+00
5.159224272E-01 9.143999815E-01 -2.376709692E-02 6.875963509E-02 5.224478531E+01 1.711612013E-14 2.626625366E+02 0.000000000E+00
5.133975148E-01 9.143999815E-01 -2.324569784E-02 6.394176930E-02 5.555812836E+01 1.042525549E-12 2.626375427E+02 0.000000000E+00
5.133975148E-01 9.143999815E-01 -2.324569412E-02 6.394176930E-02 5.555815125E+01 1.042533030E-12 2.626375427E+02 0.000000000E+00
5.108721852E-01 9.143999815E-01 -2.272613905E-02 5.912389979E-02 5.882780457E+01 3.304640849E-12 2.626125183E+02 0.000000000E+00
5.108721852E-01 9.143999815E-01 -2.272613533E-02 5.912389979E-02 5.882782745E+01 3.304657329E-12 2.626125183E+02 0.000000000E+00
5.083464384E-01 9.143999815E-01 -2.220859565E-02 5.429371074E-02 6.199869156E+01 3.069728499E-12 2.625874023E+02 0.000000000E+00
5.083464384E-01 9.143999815E-01 -2.220859192E-02 5.429371074E-02 6.199871445E+01 3.069726764E-12 2.625874023E+02 0.000000000E+00
5.058203936E-01 9.143999815E-01 -2.169285528E-02 4.943888634E-02 6.515031433E+01 2.207733996E-12 2.625621948E+02 0.000000000E+00
5.058203936E-01 9.143999815E-01 -2.169285156E-02 4.943888634E-02 6.515033722E+01 2.207727707E-12 2.625621948E+02 0.000000000E+00
5.032938719E-01 9.143999815E-01 -2.117901295E-02 4.457297549E-02 6.827272034E+01 2.053649134E-12 2.625369263E+02 0.000000000E+00
5.032938719E-01 9.143999815E-01 -2.117900923E-02 4.457297549E-02 6.827274323E+01 2.053648050E-12 2.625369263E+02 0.000000000E+00
5.007670522E-01 9.143999815E-01 -2.066695131E-02 3.970336914E-02 7.138980103E+01 2.953278897E-12 2.625115967E+02 0.000000000E+00
5.007670522E-01 9.143999815E-01 -2.066694759E-02 3.970336914E-02 7.138982391E+01 2.953285403E-12 2.625115967E+02 0.000000000E+00
4.982398450E-01 9.143999815E-01 -2.015683055E-02 3.482883796E-02 7.445785522E+01 2.381439880E-12 2.624862671E+02 0.000000000E+00
4.982398152E-01 9.143999815E-01 -2.015682682E-02 3.482883796E-02 7.445787811E+01 2.381435760E-12 2.624862671E+02 0.000000000E+00
4.957122803E-01 9.143999815E-01 -1.964846440E-02 2.995060571E-02 7.753466797E+01 1.666457445E-12 2.624608765E+02 0.000000000E+00
4.957122505E-01 9.143999815E-01 -1.964846067E-02 2.995060571E-02 7.753469086E+01 1.666452241E-12 2.624608765E+02 0.000000000E+00
4.931842983E-01 9.143999815E-01 -1.914197952E-02 2.507853508E-02 8.056734467E+01 1.153588076E-12 2.624355469E+02 0.000000000E+00
4.931842685E-01 9.143999815E-01 -1.914197579E-02 2.507853508E-02 8.056736755E+01 1.153584389E-12 2.624355469E+02 0.000000000E+00
4.906559885E-01 9.143999815E-01 -1.863726415E-02 2.020277083E-02 8.358333588E+01 6.291100995E-13 2.624101868E+02 0.000000000E+00
4.906559587E-01 9.143999815E-01 -1.863726042E-02 2.020277083E-02 8.358335876E+01 6.291063048E-13 2.624101868E+02 0.000000000E+00
4.881273210E-01 9.143999815E-01 -1.813430339E-02 1.533316355E-02 8.659185028E+01 5.718403724E-13 2.623848267E+02 0.000000000E+00
4.881272912E-01 9.143999815E-01 -1.813429967E-02 1.533316355E-02 8.659187317E+01 5.718399387E-13 2.623848267E+02 0.000000000E+00
4.855982959E-01 9.143999815E-01 -1.763311587E-02 1.047710702E-02 8.956608582E+01 7.657683081E-13 2.623595581E+02 0.000000000E+00
4.855982661E-01 9.143999815E-01 -1.763311215E-02 1.047710702E-02 8.956610870E+01 7.657697176E-13 2.623595581E+02 0.000000000E+00
4.830689430E-01 9.143999815E-01 -1.713372953E-02 5.629674532E-03 9.249182892E+01 6.882891609E-13 2.623343201E+02 0.000000000E+00
4.830689132E-01 9.143999815E-01 -1.713372581E-02 5.629674532E-03 9.249185181E+01 6.882886188E-13 2.623343201E+02 0.000000000E+00
4.805392027E-01 9.143999815E-01 -1.663607545E-02 7.871689158E-04 9.539443970E+01 5.526090653E-13 2.623091125E+02 0.000000000E+00
4.805391729E-01 9.143999815E-01 -1.663607173E-02 7.871689158E-04 9.539446259E+01 5.526080895E-13 2.623091125E+02 0.000000000E+00
4.780091643E-01 9.143999815E-01 -1.614014991E-02 -4.043017514E-03 9.826772308E+01 5.374690493E-13 2.622839355E+02 0.000000000E+00
4.780091345E-01 9.143999815E-01 -1.614014618E-02 -4.043017514E-03 9.826774597E+01 5.374689409E-13 2.622839355E+02 0.000000000E+00
4.754787683E-01 9.143999815E-01 -1.564594172E-02 -8.859653957E-03 1.011057739E+02 5.491537130E-13 2.622588501E+02 0.000000000E+00
4.754787385E-01 9.143999815E-01 -1.564593799E-02 -8.859653957E-03 1.011057968E+02 5.491538214E-13 2.622588501E+02 0.000000000E+00
4.729480445E-01 9.143999815E-01 -1.515344717E-02 -1.366397087E-02 1.039053726E+02 4.830806978E-13 2.622337952E+02 0.000000000E+00
4.729480147E-01 9.143999815E-01 -1.515344344E-02 -1.366397087E-02 1.039053955E+02 4.830802099E-13 2.622337952E+02 0.000000000E+00
4.704169929E-01 9.143999815E-01 -1.466265228E-02 -1.845843345E-02 1.066742020E+02 3.945118700E-13 2.622088013E+02 0.000000000E+00
4.704169631E-01 9.143999815E-01 -1.466264855E-02 -1.845843345E-02 1.066742249E+02 3.945112195E-13 2.622088013E+02 0.000000000E+00
4.678856134E-01 9.143999815E-01 -1.417353470E-02 -2.323318459E-02 1.094141769E+02 5.139954217E-13 2.621838989E+02 0.000000000E+00
4.678855836E-01 9.143999815E-01 -1.417353097E-02 -2.323318459E-02 1.094141998E+02 5.139962891E-13 2.621838989E+02 0.000000000E+00
4.653538764E-01 9.143999815E-01 -1.368615218E-02 -2.798946016E-02 1.120958633E+02 4.862972004E-13 2.621591187E+02 0.000000000E+00
4.653538465E-01 9.143999815E-01 -1.368614845E-02 -2.798946016E-02 1.120958862E+02 4.862969836E-13 2.621591187E+02 0.000000000E+00
4.628218412E-01 9.143999815E-01 -1.320043392E-02 -3.273587674E-02 1.147430420E+02 3.592885809E-13 2.621343384E+02 0.000000000E+00
4.628218114E-01 9.143999815E-01 -1.320043020E-02 -3.273587674E-02 1.147430649E+02 3.592876593E-13 2.621343384E+02 0.000000000E+00
4.602895081E-01 9.143999815E-01 -1.271638833E-02 -3.746874630E-02 1.173506927E+02 1.860976380E-13 2.621096497E+02 0.000000000E+00
4.602894783E-01 9.143999815E-01 -1.271638460E-02 -3.746874630E-02 1.173507080E+02 1.860963776E-13 2.621096497E+02 0.000000000E+00
4.577568471E-01 9.143999815E-01 -1.223395951E-02 -4.218929633E-02 1.199442291E+02 2.175221402E-13 2.620850220E+02 0.000000000E+00
4.577568173E-01 9.143999815E-01 -1.223395579E-02 -4.218929633E-02 1.199442444E+02 2.175223706E-13 2.620850220E+02 0.000000000E+00
4.552238584E-01 9.143999815E-01 -1.175316889E-02 -4.688151181E-02 1.225045319E+02 5.433675970E-13 2.620605164E+02 0.000000000E+00
4.552238286E-01 9.143999815E-01 -1.175316516E-02 -4.688151181E-02 1.225045471E+02 5.433699823E-13 2.620605164E+02 0.000000000E+00
4.526905417E-01 9.143999815E-01 -1.127410959E-02 -5.155648291E-02 1.249787521E+02 3.996884204E-13 2.620361023E+02 0.000000000E+00
4.526905119E-01 9.143999815E-01 -1.127410587E-02 -5.155648291E-02 1.249787674E+02 3.996873633E-13 2.620361023E+02 0.000000000E+00
4.501569569E-01 9.143999815E-01 -1.079664659E-02 -5.623514950E-02 1.274462509E+02 2.342283539E-13 2.620116882E+02 0.000000000E+00
4.501569271E-01 9.143999815E-01 -1.079664286E-02 -5.623514950E-02 1.274462662E+02 2.342271613E-13 2.620116882E+02 0.000000000E+00
4.476230443E-01 9.143999815E-01 -1.032076683E-02 -6.088301912E-02 1.299047394E+02 4.688471291E-13 2.619873962E+02 0.000000000E+00
4.476230145E-01 9.143999815E-01 -1.032076310E-02 -6.088301912E-02 1.299047546E+02 4.688488638E-13 2.619873962E+02 0.000000000E+00
4.450888336E-01 9.143999815E-01 -9.846596979E-03 -6.550871581E-02 1.322740173E+02 3.486929441E-13 2.619632263E+02 0.000000000E+00
4.450888038E-01 9.143999815E-01 -9.846593253E-03 -6.550871581E-02 1.322740326E+02 3.486920767E-13 2.619632263E+02 0.000000000E+00
4.425542951E-01 9.143999815E-01 -9.374016896E-03 -7.013810426E-02 1.346340179E+02 4.003131377E-13 2.619390259E+02 0.000000000E+00
4.425542653E-01 9.143999815E-01 -9.374013171E-03 -7.013810426E-02 1.346340332E+02 4.003135171E-13 2.619390259E+02 0.000000000E+00
4.400194883E-01 9.143999815E-01 -8.902996778E-03 -7.473669946E-02 1.369882965E+02 1.029460154E-12 2.619149780E+02 0.000000000E+00
4.400194585E-01 9.143999815E-01 -8.902993053E-03 -7.473669946E-02 1.369883118E+02 1.029464708E-12 2.619149780E+02 0.000000000E+00
4.374843538E-01 9.143999815E-01 -8.433709852E-03 -7.931804657E-02 1.392475739E+02 8.073964132E-13 2.618910522E+02 0.000000000E+00
4.374843240E-01 9.143999815E-01 -8.433706127E-03 -7.931804657E-02 1.392475891E+02 8.073948411E-13 2.618910522E+02 0.000000000E+00
4.349489510E-01 9.143999815E-01 -7.965944707E-03 -8.389692754E-02 1.415147552E+02 3.310094711E-13 2.618670959E+02 0.000000000E+00
4.349489212E-01 9.143999815E-01 -7.965940982E-03 -8.389692754E-02 1.415147705E+02 3.310060017E-13 2.618670959E+02 0.000000000E+00
4.324132204E-01 9.143999815E-01 -7.499831729E-03 -8.845117688E-02 1.437349854E+02 1.419189337E-13 2.618432617E+02 0.000000000E+00
4.324131906E-01 9.143999815E-01 -7.499828469E-03 -8.845117688E-02 1.437350006E+02 1.419175649E-13 2.618432617E+02 0.000000000E+00
4.298772216E-01 9.143999815E-01 -7.035299204E-03 -9.299802780E-02 1.459300385E+02 9.637303705E-14 2.618194580E+02 0.000000000E+00
4.298771918E-01 9.143999815E-01 -7.035295945E-03 -9.299802780E-02 1.459300537E+02 9.637270501E-14 2.618194580E+02 0.000000000E+00
4.273409247E-01 9.143999815E-01 -6.572367158E-03 -9.752517939E-02 1.480940399E+02 1.546197388E-13 2.617957764E+02 0.000000000E+00
4.273408949E-01 9.143999815E-01 -6.572363898E-03 -9.752517939E-02 1.480940552E+02 1.546201589E-13 2.617957764E+02 0.000000000E+00
4.248043299E-01 9.143999815E-01 -6.111073308E-03 -1.020436957E-01 1.502134705E+02 2.316038800E-13 2.617721252E+02 0.000000000E+00
4.248043001E-01 9.143999815E-01 -6.111070048E-03 -1.020436957E-01 1.502134857E+02 2.316044492E-13 2.617721252E+02 0.000000000E+00
4.222674370E-01 9.143999815E-01 -5.651320331E-03 -1.065474376E-01 1.523286591E+02 4.186877624E-13 2.617485657E+02 0.000000000E+00
4.222674072E-01 9.143999815E-01 -5.651317071E-03 -1.065474376E-01 1.523286743E+02 4.186891177E-13 2.617485657E+02 0.000000000E+00
4.197302759E-01 9.143999815E-01 -5.193241872E-03 -1.110363975E-01 1.543841400E+02 3.367390188E-13 2.617250366E+02 0.000000000E+00
4.197302461E-01 9.143999815E-01 -5.193238612E-03 -1.110363975E-01 1.543841553E+02 3.367384225E-13 2.617250366E+02 0.000000000E+00
4.171928167E-01 9.143999815E-01 -4.736695439E-03 -1.155191958E-01 1.564384003E+02 2.062868919E-13 2.617015686E+02 0.000000000E+00
4.171927869E-01 9.143999815E-01 -4.736692179E-03 -1.155191958E-01 1.564384155E+02 2.062859432E-13 2.617015686E+02 0.000000000E+00
4.146550596E-01 9.143999815E-01 -4.281803034E-03 -1.199847460E-01 1.584481506E+02 1.213414677E-13 2.616781616E+02 0.000000000E+00
4.146550298E-01 9.143999815E-01 -4.281799775E-03 -1.199847460E-01 1.584481659E+02 1.213408443E-13 2.616781616E+02 0.000000000E+00
4.121170342E-01 9.143999815E-01 -3.828475019E-03 -1.244441345E-01 1.604446869E+02 7.087346931E-14 2.616547852E+02 0.000000000E+00
4.121170044E-01 9.143999815E-01 -3.828471759E-03 -1.244441345E-01 1.604447021E+02 7.087310339E-14 2.616547852E+02 0.000000000E+00
4.095786810E-01 9.143999815E-01 -3.376783803E-03 -1.288875192E-01 1.623966522E+02 5.261829994E-14 2.616315002E+02 0.000000000E+00
4.095786512E-01 9.143999815E-01 -3.376780543E-03 -1.288875192E-01 1.623966675E+02 5.261816780E-14 2.616315002E+02 0.000000000E+00
4.070400894E-01 9.143999815E-01 -2.926689573E-03 -1.333333552E-01 1.643362427E+02 3.552758673E-13 2.616081848E+02 0.000000000E+00
4.070400596E-01 9.143999815E-01 -2.926686313E-03 -1.333333552E-01 1.643362579E+02 3.552780628E-13 2.616081848E+02 0.000000000E+00
4.045011997E-01 9.143999815E-01 -2.478146460E-03 -1.377582550E-01 1.662711792E+02 1.060900499E-12 2.615849915E+02 0.000000000E+00
4.045011699E-01 9.143999815E-01 -2.478143200E-03 -1.377582550E-01 1.662711945E+02 1.060905595E-12 2.615849915E+02 0.000000000E+00
4.019620121E-01 9.143999815E-01 -2.031329321E-03 -1.421806961E-01 1.681353149E+02 1.227660118E-12 2.615617676E+02 0.000000000E+00
4.019619823E-01 9.143999815E-01 -2.031326061E-03 -1.421806961E-01 1.681353302E+02 1.227661310E-12 2.615617676E+02 0.000000000E+00
3.994225562E-01 9.143999815E-01 -1.585983438E-03 -1.465981901E-01 1.700438538E+02 1.608215948E-12 2.615386047E+02 0.000000000E+00
3.994225264E-01 9.143999815E-01 -1.585980179E-03 -1.465981901E-01 1.700438690E+02 1.608218766E-12 2.615386047E+02 0.000000000E+00
3.968828022E-01 9.143999815E-01 -1.142410561E-03 -1.509935260E-01 1.718578339E+02 1.063848554E-12 2.615155334E+02 0.000000000E+00
3.968827724E-01 9.143999815E-01 -1.142407302E-03 -1.509935260E-01 1.718578491E+02 1.063844542E-12 2.615155334E+02 0.000000000E+00
3.943427801E-01 9.143999815E-01 -7.003724459E-04 -1.554085761E-01 1.736939850E+02 3.703099567E-13 2.614923706E+02 0.000000000E+00
3.943427503E-01 9.143999815E-01 -7.003692444E-04 -1.554085761E-01 1.736940002E+02 3.703049152E-13 2.614923706E+02 0.000000000E+00
3.918024898E-01 9.143999815E-01 -2.599571890E-04 -1.597965211E-01 1.755179749E+02 4.448750125E-13 2.614693298E+02 0.000000000E+00
3.918024600E-01 9.143999815E-01 -2.599539876E-04 -1.597965211E-01 1.755179901E+02 4.448755546E-13 2.614693298E+02 0.000000000E+00
3.892618716E-01 9.143999815E-01 1.787438232E-04 -1.641893834E-01 1.772789459E+02 4.792099335E-13 2.614462585E+02 0.000000000E+00
3.892618418E-01 9.143999815E-01 1.787470246E-04 -1.641893834E-01 1.772789612E+02 4.792102045E-13 2.614462585E+02 0.000000000E+00
3.867210150E-01 9.143999815E-01 6.159219192E-04 -1.685822606E-01 1.790867310E+02 5.690540270E-13 2.614231873E+02 0.000000000E+00
3.867209852E-01 9.143999815E-01 6.159251207E-04 -1.685822606E-01 1.790867462E+02 5.690546775E-13 2.614231873E+02 0.000000000E+00
3.841798306E-01 9.143999815E-01 1.051343977E-03 -1.729492545E-01 1.808124237E+02 3.845068795E-13 2.614002686E+02 0.000000000E+00
3.841798007E-01 9.143999815E-01 1.051347121E-03 -1.729492545E-01 1.808124390E+02 3.845055242E-13 2.614002686E+02 0.000000000E+00
3.816384077E-01 9.143999815E-01 1.485136803E-03 -1.773507595E-01 1.825428925E+02 7.665737619E-13 2.613771362E+02 0.000000000E+00
3.816383779E-01 9.143999815E-01 1.485139946E-03 -1.773507595E-01 1.825429077E+02 7.665765266E-13 2.613771362E+02 0.000000000E+00
3.790966868E-01 9.143999815E-01 1.917375368E-03 -1.817251444E-01 1.843252106E+02 2.155762114E-12 2.613541565E+02 0.000000000E+00
3.790966570E-01 9.143999815E-01 1.917378511E-03 -1.817251444E-01 1.843252258E+02 2.155772305E-12 2.613541565E+02 0.000000000E+00
3.765546679E-01 9.143999815E-01 2.347750124E-03 -1.860798299E-01 1.859687500E+02 1.585076037E-12 2.613312378E+02 0.000000000E+00
3.765546381E-01 9.143999815E-01 2.347753150E-03 -1.860798299E-01 1.859687653E+02 1.585071917E-12 2.613312378E+02 0.000000000E+00
3.740123510E-01 9.143999815E-01 2.776533365E-03 -1.904874891E-01 1.876587372E+02 1.255618873E-12 2.613080750E+02 0.000000000E+00
3.740123212E-01 9.143999815E-01 2.776536392E-03 -1.904874891E-01 1.876587524E+02 1.255616488E-12 2.613080750E+02 0.000000000E+00
3.714697957E-01 9.143999815E-01 3.203731962E-03 -1.948569417E-01 1.894096069E+02 2.928155982E-12 2.612850952E+02 0.000000000E+00
3.714697659E-01 9.143999815E-01 3.203734988E-03 -1.948569417E-01 1.894096222E+02 2.928168125E-12 2.612850952E+02 0.000000000E+00
3.689269125E-01 9.143999815E-01 3.629022976E-03 -1.992079318E-01 1.910075989E+02 2.154242496E-12 2.612622070E+02 0.000000000E+00
3.689268827E-01 9.143999815E-01 3.629026003E-03 -1.992079318E-01 1.910076141E+02 2.154236858E-12 2.612622070E+02 0.000000000E+00
3.663837612E-01 9.143999815E-01 4.052697681E-03 -2.036192864E-01 1.926566010E+02 1.023424726E-12 2.612389832E+02 0.000000000E+00
3.663837314E-01 9.143999815E-01 4.052700941E-03 -2.036192864E-01 1.926566162E+02 1.023416486E-12 2.612389832E+02 0.000000000E+00
3.638403416E-01 9.143999815E-01 4.474746529E-03 -2.079949081E-01 1.943697662E+02 1.801795583E-12 2.612159729E+02 0.000000000E+00
3.638403118E-01 9.143999815E-01 4.474749789E-03 -2.079949081E-01 1.943697815E+02 1.801801221E-12 2.612159729E+02 0.000000000E+00
3.612965941E-01 9.143999815E-01 4.894873593E-03 -2.123508155E-01 1.959385529E+02 1.332108469E-12 2.611930237E+02 0.000000000E+00
3.612965643E-01 9.143999815E-01 4.894876853E-03 -2.123508155E-01 1.959385681E+02 1.332104999E-12 2.611930237E+02 0.000000000E+00
3.587525785E-01 9.143999815E-01 5.313317291E-03 -2.167646289E-01 1.975328217E+02 4.105054784E-13 2.611697998E+02 0.000000000E+00
3.587525487E-01 9.143999815E-01 5.313320551E-03 -2.167646289E-01 1.975328369E+02 4.104987563E-13 2.611697998E+02 0.000000000E+00
3.562082946E-01 9.143999815E-01 5.730123725E-03 -2.211648971E-01 1.992047882E+02 3.897490783E-13 2.611466370E+02 0.000000000E+00
3.562082648E-01 9.143999815E-01 5.730126984E-03 -2.211648971E-01 1.992048035E+02 3.897489156E-13 2.611466370E+02 0.000000000E+00
3.536637127E-01 9.143999815E-01 6.145041902E-03 -2.255491465E-01 2.008017426E+02 3.082708784E-13 2.611235352E+02 0.000000000E+00
3.536636829E-01 9.143999815E-01 6.145044696E-03 -2.255491465E-01 2.008017578E+02 3.082702821E-13 2.611235352E+02 0.000000000E+00
3.511188328E-01 9.143999815E-01 6.558203604E-03 -2.299530953E-01 2.023947906E+02 1.275412881E-13 2.611003418E+02 0.000000000E+00
3.511188030E-01 9.143999815E-01 6.558206398E-03 -2.299530953E-01 2.023948059E+02 1.275399735E-13 2.611003418E+02 0.000000000E+00
3.485736251E-01 9.143999815E-01 6.969499402E-03 -2.343619913E-01 2.039667358E+02 6.099774277E-14 2.610770874E+02 0.000000000E+00
3.485735953E-01 9.143999815E-01 6.969502196E-03 -2.343619913E-01 2.039667511E+02 6.099726166E-14 2.610770874E+02 0.000000000E+00
3.460281789E-01 9.143999815E-01 7.379024755E-03 -2.387807220E-01 2.055543823E+02 4.936706222E-14 2.610538025E+02 0.000000000E+00
3.460281491E-01 9.143999815E-01 7.379027549E-03 -2.387807220E-01 2.055543976E+02 4.936697752E-14 2.610538025E+02 0.000000000E+00
3.434824049E-01 9.143999815E-01 7.786672562E-03 -2.432019264E-01 2.071210175E+02 3.640330767E-14 2.610305176E+02 0.000000000E+00
3.434823751E-01 9.143999815E-01 7.786675356E-03 -2.432019264E-01 2.071210327E+02 3.640321280E-14 2.610305176E+02 0.000000000E+00
3.409363329E-01 9.143999815E-01 8.192489855E-03 -2.476342171E-01 2.086900787E+02 2.563704626E-14 2.610071106E+02 0.000000000E+00
3.409363031E-01 9.143999815E-01 8.192492649E-03 -2.476342171E-01 2.086900940E+02 2.563696834E-14 2.610071106E+02 0.000000000E+00
3.383899629E-01 9.143999815E-01 8.596418425E-03 -2.520739138E-01 2.102480621E+02 1.908918851E-14 2.609837036E+02 0.000000000E+00
3.383899331E-01 9.143999815E-01 8.596421219E-03 -2.520739138E-01 2.102480774E+02 1.908914108E-14 2.609837036E+02 0.000000000E+00
3.358432949E-01 9.143999815E-01 8.998454548E-03 -2.565259039E-01 2.117995300E+02 1.317379840E-14 2.609602356E+02 0.000000000E+00
3.358432651E-01 9.143999815E-01 8.998457342E-03 -2.565259039E-01 2.117995453E+02 1.317375520E-14 2.609602356E+02 0.000000000E+00
3.332963586E-01 9.143999815E-01 9.398596361E-03 -2.609865367E-01 2.133545685E+02 1.584406129E-14 2.609366760E+02 0.000000000E+00
3.332963288E-01 9.143999815E-01 9.398599155E-03 -2.609865367E-01 2.133545837E+02 1.584407993E-14 2.609366760E+02 0.000000000E+00
3.307490647E-01 9.143999815E-01 9.796782397E-03 -2.654594779E-01 2.148949432E+02 2.411272747E-14 2.609130859E+02 0.000000000E+00
3.307490349E-01 9.143999815E-01 9.796785191E-03 -2.654594779E-01 2.148949585E+02 2.411278845E-14 2.609130859E+02 0.000000000E+00
3.282015026E-01 9.143999815E-01 1.019304805E-02 -2.699435055E-01 2.164438477E+02 4.789044324E-14 2.608894043E+02 0.000000000E+00
3.282014728E-01 9.143999815E-01 1.019305084E-02 -2.699435055E-01 2.164438629E+02 4.789061603E-14 2.608894043E+02 0.000000000E+00
3.256536424E-01 9.143999815E-01 1.058730390E-02 -2.744398415E-01 2.179765167E+02 6.204437056E-14 2.608656616E+02 0.000000000E+00
3.256536126E-01 9.143999815E-01 1.058730669E-02 -2.744398415E-01 2.179765320E+02 6.204447221E-14 2.608656616E+02 0.000000000E+00
3.231054544E-01 9.143999815E-01 1.097960584E-02 -2.789497375E-01 2.195207672E+02 8.709499051E-14 2.608418579E+02 0.000000000E+00
3.231054246E-01 9.143999815E-01 1.097960863E-02 -2.789497375E-01 2.195207825E+02 8.709517347E-14 2.608418579E+02 0.000000000E+00
3.205569685E-01 9.143999815E-01 1.136984304E-02 -2.834719718E-01 2.210457611E+02 9.010842880E-14 2.608179626E+02 0.000000000E+00
3.205569386E-01 9.143999815E-01 1.136984583E-02 -2.834719718E-01 2.210457764E+02 9.010844913E-14 2.608179626E+02 0.000000000E+00
3.180081546E-01 9.143999815E-01 1.175809279E-02 -2.880102098E-01 2.225884247E+02 1.113147457E-13 2.607939758E+02 0.000000000E+00
3.180081248E-01 9.143999815E-01 1.175809558E-02 -2.880102098E-01 2.225884399E+02 1.113149015E-13 2.607939758E+02 0.000000000E+00
3.154590428E-01 9.143999815E-01 1.214422192E-02 -2.925619781E-01 2.241083374E+02 1.050485924E-13 2.607699280E+02 0.000000000E+00
3.154590130E-01 9.143999815E-01 1.214422472E-02 -2.925619781E-01 2.241083527E+02 1.050485450E-13 2.607699280E+02 0.000000000E+00
3.129096031E-01 9.143999815E-01 1.252832264E-02 -2.971334755E-01 2.256515198E+02 1.161743770E-13 2.607457581E+02 0.000000000E+00
3.129095733E-01 9.143999815E-01 1.252832543E-02 -2.971334755E-01 2.256515350E+02 1.161744583E-13 2.607457581E+02 0.000000000E+00
3.103598356E-01 9.143999815E-01 1.291025151E-02 -3.017160594E-01 2.271724091E+02 1.027300600E-13 2.607215271E+02 0.000000000E+00
3.103598058E-01 9.143999815E-01 1.291025430E-02 -3.017160594E-01 2.271724243E+02 1.027299651E-13 2.607215271E+02 0.000000000E+00
3.078097701E-01 9.143999815E-01 1.329009049E-02 -3.063195646E-01 2.287119598E+02 1.007833275E-13 2.606971741E+02 0.000000000E+00
3.078097403E-01 9.143999815E-01 1.329009328E-02 -3.063195646E-01 2.287119751E+02 1.007833140E-13 2.606971741E+02 0.000000000E+00
3.052593768E-01 9.143999815E-01 1.366771571E-02 -3.109378815E-01 2.302355804E+02 8.745975000E-14 2.606727295E+02 0.000000000E+00
3.052593470E-01 9.143999815E-01 1.366771851E-02 -3.109378815E-01 2.302355957E+02 8.745965513E-14 2.606727295E+02 0.000000000E+00
3.027086556E-01 9.143999815E-01 1.404318679E-02 -3.155783415E-01 2.317748871E+02 8.492052818E-14 2.606481934E+02 0.000000000E+00
3.027086258E-01 9.143999815E-01 1.404318959E-02 -3.155783415E-01 2.317749023E+02 8.492050785E-14 2.606481934E+02 0.000000000E+00
3.001576364E-01 9.143999815E-01 1.441640034E-02 -3.202336133E-01 2.333031769E+02 7.337172861E-14 2.606235352E+02 0.000000000E+00
3.001576066E-01 9.143999815E-01 1.441640314E-02 -3.202336133E-01 2.333031921E+02 7.337164730E-14 2.606235352E+02 0.000000000E+00
2.976062596E-01 9.143999815E-01 1.478738990E-02 -3.249122798E-01 2.348449097E+02 7.127087684E-14 2.605987854E+02 0.000000000E+00
2.976062298E-01 9.143999815E-01 1.478739269E-02 -3.249122798E-01 2.348449249E+02 7.127086329E-14 2.605987854E+02 0.000000000E+00
2.950545549E-01 9.143999815E-01 1.515608374E-02 -3.296082020E-01 2.363845367E+02 7.423422500E-14 2.605739136E+02 0.000000000E+00
2.950545251E-01 9.143999815E-01 1.515608653E-02 -3.296082020E-01 2.363845520E+02 7.423424532E-14 2.605739136E+02 0.000000000E+00
2.925025225E-01 9.143999815E-01 1.552246697E-02 -3.343275189E-01 2.379288788E+02 7.757931396E-14 2.605489197E+02 0.000000000E+00
2.925024927E-01 9.143999815E-01 1.552246977E-02 -3.343275189E-01 2.379288940E+02 7.757934106E-14 2.605489197E+02 0.000000000E+00
2.899501324E-01 9.143999815E-01 1.588651538E-02 -3.390665352E-01 2.394804230E+02 9.315994292E-14 2.605238037E+02 0.000000000E+00
2.899501026E-01 9.143999815E-01 1.588651724E-02 -3.390665352E-01 2.394804382E+02 9.316005812E-14 2.605238037E+02 0.000000000E+00
2.873974442E-01 9.143999815E-01 1.624816097E-02 -3.438277245E-01 2.410269775E+02 9.990889816E-14 2.604985962E+02 0.000000000E+00
2.873974144E-01 9.143999815E-01 1.624816284E-02 -3.438277245E-01 2.410269928E+02 9.990894559E-14 2.604985962E+02 0.000000000E+00
2.848443985E-01 9.143999815E-01 1.660743356E-02 -3.486111164E-01 2.425908356E+02 1.316989324E-13 2.604732361E+02 0.000000000E+00
2.848443687E-01 9.143999815E-01 1.660743542E-02 -3.486111164E-01 2.425908508E+02 1.316991628E-13 2.604732361E+02 0.000000000E+00
2.822909951E-01 9.143999815E-01 1.696421579E-02 -3.534203470E-01 2.441468201E+02 1.578617066E-13 2.604477539E+02 0.000000000E+00
2.822909653E-01 9.143999815E-01 1.696421765E-02 -3.534203470E-01 2.441468353E+02 1.578618963E-13 2.604477539E+02 0.000000000E+00
2.797372639E-01 9.143999815E-01 1.731858775E-02 -3.582517803E-01 2.457366180E+02 2.396391462E-13 2.604221191E+02 0.000000000E+00
2.797372341E-01 9.143999815E-01 1.731858961E-02 -3.582517803E-01 2.457366333E+02 2.396397425E-13 2.604221191E+02 0.000000000E+00
2.771831751E-01 9.143999815E-01 1.767035760E-02 -3.631053567E-01 2.472971649E+02 2.324186579E-13 2.603963623E+02 0.000000000E+00
2.771831453E-01 9.143999815E-01 1.767035946E-02 -3.631053567E-01 2.472971802E+02 2.324186037E-13 2.603963623E+02 0.000000000E+00
2.746287286E-01 9.143999815E-01 1.801965944E-02 -3.679885268E-01 2.488999481E+02 2.540356976E-13 2.603704834E+02 0.000000000E+00
2.746286988E-01 9.143999815E-01 1.801966131E-02 -3.679885268E-01 2.488999634E+02 2.540358603E-13 2.603704834E+02 0.000000000E+00
2.720739543E-01 9.143999815E-01 1.836628467E-02 -3.728889227E-01 2.504764252E+02 2.098476557E-13 2.603444824E+02 0.000000000E+00
2.720739245E-01 9.143999815E-01 1.836628653E-02 -3.728889227E-01 2.504764404E+02 2.098473305E-13 2.603444824E+02 0.000000000E+00