#++++++++++++++++++++++++++++++++++++++++++++++++++++++++++++++++++++++++++++++++++++++++++++++++++++++++++++++++++++
#
#   IPW-3 Ice Shape DATA SUBMITTAL FORM for Test Case NACA0012_AE3932, May 18th 2026
#
#       NOMENCLATURE:
#             X_ICED [m]:  X-coordinate of the iced surface
#             Y_ICED [m]:  Y-coordinate of the iced surface
#             Z_ICED [m]:  Z-coordinate of the iced surface
#
#                XXmm:  Roughness height used for the case, in mm.
#                       In the zone name, use the format KS_XXmm.
#                       For example, if k_s = 1.5 mm, use KS_1p5mm. 
#                       For Variable roughness, use KS_VAR
#
#    FLOW CONDITIONS:
#                                   AOA: 4.0 deg
#                           Mach Number: 0.3151 [-]
#       Mean aerodynamic chord (M.A.C.): 0.5334 [m]
#                       Reynolds Number: 3.9795 million (based on MAC)
#                       Freestream Temp: 267.55 [K]
#                        Reference area: 0.97548 [m2]
#               Moment Reference Center: 0.13335, 0, 0 [m] (X, Y, Z)
#
#    ICING CONDITIONS:
#                           Icing Time: 420 [s]
#                                  LWC: 0.55 [g/m3]
#                                  MVD: 20 [μm]
#
#              NOTES: 1. Please use at least 5 decimal places in the numerical values
#                     2. If data are NOT provided, please fill data fields with a numerical value of "-999" 
#
#++++++++++++++++++++++++++++++++++++++++++++++++++++++++++++++++++++++++++++++++++++++++++++++++++++++++++++++++++++

AUXDATA NUM_LAYERS  = "insert the number of total ice layers"
                                              
VARIABLES = "X_ICED" "Y_ICED" "Z_ICED"

ZONE T="SLICE_Y_0p9144_BINS01_KS_XXmm_SINGLE_LAYER"
-999 -999 -999

ZONE T="SLICE_Y_0p9144_BINS03_KS_XXmm_SINGLE_LAYER"
-999 -999 -999

ZONE T="SLICE_Y_0p9144_BINS07_KS_XXmm_SINGLE_LAYER"
-999 -999 -999

ZONE T="SLICE_Y_0p9144_BINS15_KS_XXmm_SINGLE_LAYER"
5.324723849E+02 9.144000000E+02 -2.723562889E+01
 5.324723849E+02 9.144000000E+02 -2.723562928E+01
 5.324661304E+02 9.144000000E+02 -2.732502155E+01
 5.324598755E+02 9.144000000E+02 -2.741441380E+01
 5.324598754E+02 9.144000000E+02 -2.741441418E+01
 5.324536205E+02 9.144000000E+02 -2.750380643E+01
 5.324536204E+02 9.144000000E+02 -2.750380682E+01
 5.324473655E+02 9.144000000E+02 -2.759319906E+01
 5.324473655E+02 9.144000000E+02 -2.759319945E+01
 5.324411132E+02 9.144000000E+02 -2.768259188E+01
 5.324411132E+02 9.144000000E+02 -2.768259227E+01
 5.324348636E+02 9.144000000E+02 -2.777198489E+01
 5.324348636E+02 9.144000000E+02 -2.777198528E+01
 5.324286140E+02 9.144000000E+02 -2.786137790E+01
 5.324286139E+02 9.144000000E+02 -2.786137828E+01
 5.324223644E+02 9.144000000E+02 -2.795077090E+01
 5.324223643E+02 9.144000000E+02 -2.795077129E+01
 5.324161148E+02 9.144000000E+02 -2.804016391E+01
 5.324161147E+02 9.144000000E+02 -2.804016430E+01
 5.324098652E+02 9.144000000E+02 -2.812955692E+01
 5.324098651E+02 9.144000000E+02 -2.812955731E+01
 5.324036182E+02 9.144000000E+02 -2.821895011E+01
 5.324036182E+02 9.144000000E+02 -2.821895050E+01
 5.323973739E+02 9.144000000E+02 -2.830834349E+01
 5.323973739E+02 9.144000000E+02 -2.830834388E+01
 5.323911297E+02 9.144000000E+02 -2.839773687E+01
 5.323911296E+02 9.144000000E+02 -2.839773726E+01
 5.323848854E+02 9.144000000E+02 -2.848713025E+01
 5.323848854E+02 9.144000000E+02 -2.848713064E+01
 5.323786205E+02 9.144000000E+02 -2.857652219E+01
 5.323786205E+02 9.144000000E+02 -2.857652258E+01
 5.321252356E+02 9.144000000E+02 -2.859416244E+01
 5.321252345E+02 9.144000000E+02 -2.859416252E+01
 5.317198154E+02 9.144000000E+02 -2.862234154E+01
 5.317198137E+02 9.144000000E+02 -2.862234166E+01
 5.310711331E+02 9.144000000E+02 -2.866728257E+01
 5.310711303E+02 9.144000000E+02 -2.866728277E+01
 5.300332342E+02 9.144000000E+02 -2.873908334E+01
 5.300332297E+02 9.144000000E+02 -2.873908365E+01
 5.283725384E+02 9.144000000E+02 -2.885313108E+01
 5.283725312E+02 9.144000000E+02 -2.885313158E+01
 5.258042195E+02 9.144000000E+02 -2.902791979E+01
 5.258042083E+02 9.144000000E+02 -2.902792055E+01
 5.232357511E+02 9.144000000E+02 -2.920055656E+01
 5.232357399E+02 9.144000000E+02 -2.920055731E+01
 5.206671518E+02 9.144000000E+02 -2.937123546E+01
 5.206671406E+02 9.144000000E+02 -2.937123620E+01
 5.180984184E+02 9.144000000E+02 -2.953988434E+01
 5.180984072E+02 9.144000000E+02 -2.953988507E+01
 5.155295548E+02 9.144000000E+02 -2.970653751E+01
 5.155295437E+02 9.144000000E+02 -2.970653824E+01
 5.129605649E+02 9.144000000E+02 -2.987123085E+01
 5.129605537E+02 9.144000000E+02 -2.987123157E+01
 5.103914545E+02 9.144000000E+02 -3.003403601E+01
 5.103914433E+02 9.144000000E+02 -3.003403672E+01
 5.078222168E+02 9.144000000E+02 -3.019481847E+01
 5.078222056E+02 9.144000000E+02 -3.019481917E+01
 5.052528643E+02 9.144000000E+02 -3.035375498E+01
 5.052528531E+02 9.144000000E+02 -3.035375567E+01
 5.026833942E+02 9.144000000E+02 -3.051078118E+01
 5.026833831E+02 9.144000000E+02 -3.051078186E+01
 5.001138135E+02 9.144000000E+02 -3.066598637E+01
 5.001138024E+02 9.144000000E+02 -3.066598704E+01
 4.975441142E+02 9.144000000E+02 -3.081921499E+01
 4.975441030E+02 9.144000000E+02 -3.081921565E+01
 4.949743088E+02 9.144000000E+02 -3.097065428E+01
 4.949742976E+02 9.144000000E+02 -3.097065494E+01
 4.924043935E+02 9.144000000E+02 -3.112021598E+01
 4.924043823E+02 9.144000000E+02 -3.112021663E+01
 4.898343728E+02 9.144000000E+02 -3.126795631E+01
 4.898343616E+02 9.144000000E+02 -3.126795696E+01
 4.872642502E+02 9.144000000E+02 -3.141391271E+01
 4.872642390E+02 9.144000000E+02 -3.141391335E+01
 4.846940267E+02 9.144000000E+02 -3.155808334E+01
 4.846940156E+02 9.144000000E+02 -3.155808396E+01
 4.821237017E+02 9.144000000E+02 -3.170043104E+01
 4.821236905E+02 9.144000000E+02 -3.170043166E+01
 4.795532792E+02 9.144000000E+02 -3.184100738E+01
 4.795532680E+02 9.144000000E+02 -3.184100799E+01
 4.769827617E+02 9.144000000E+02 -3.197983686E+01
 4.769827506E+02 9.144000000E+02 -3.197983746E+01
 4.744121506E+02 9.144000000E+02 -3.211692029E+01
 4.744121394E+02 9.144000000E+02 -3.211692088E+01
 4.718414471E+02 9.144000000E+02 -3.225226128E+01
 4.718414359E+02 9.144000000E+02 -3.225226187E+01
 4.692706540E+02 9.144000000E+02 -3.238588859E+01
 4.692706428E+02 9.144000000E+02 -3.238588917E+01
 4.666997713E+02 9.144000000E+02 -3.251778335E+01
 4.666997602E+02 9.144000000E+02 -3.251778392E+01
 4.641288004E+02 9.144000000E+02 -3.264794520E+01
 4.641287892E+02 9.144000000E+02 -3.264794576E+01
 4.615577446E+02 9.144000000E+02 -3.277641963E+01
 4.615577334E+02 9.144000000E+02 -3.277642019E+01
 4.589866050E+02 9.144000000E+02 -3.290320532E+01
 4.589865938E+02 9.144000000E+02 -3.290320587E+01
 4.564153851E+02 9.144000000E+02 -3.302835258E+01
 4.564153739E+02 9.144000000E+02 -3.302835313E+01
 4.538440829E+02 9.144000000E+02 -3.315179698E+01
 4.538440717E+02 9.144000000E+02 -3.315179751E+01
 4.512726992E+02 9.144000000E+02 -3.327353091E+01
 4.512726880E+02 9.144000000E+02 -3.327353144E+01
 4.487012392E+02 9.144000000E+02 -3.339364376E+01
 4.487012280E+02 9.144000000E+02 -3.339364428E+01
 4.461297050E+02 9.144000000E+02 -3.351215848E+01
 4.461296939E+02 9.144000000E+02 -3.351215899E+01
 4.435580893E+02 9.144000000E+02 -3.362888939E+01
 4.435580781E+02 9.144000000E+02 -3.362888990E+01
 4.409864033E+02 9.144000000E+02 -3.374406234E+01
 4.409863922E+02 9.144000000E+02 -3.374406284E+01
 4.384146449E+02 9.144000000E+02 -3.385760552E+01
 4.384146337E+02 9.144000000E+02 -3.385760602E+01
 4.358428117E+02 9.144000000E+02 -3.396944335E+01
 4.358428005E+02 9.144000000E+02 -3.396944384E+01
 4.332709123E+02 9.144000000E+02 -3.407974673E+01
 4.332709011E+02 9.144000000E+02 -3.407974721E+01
 4.306989390E+02 9.144000000E+02 -3.418831323E+01
 4.306989278E+02 9.144000000E+02 -3.418831370E+01
 4.281269011E+02 9.144000000E+02 -3.429533975E+01
 4.281268899E+02 9.144000000E+02 -3.429534021E+01
 4.255547940E+02 9.144000000E+02 -3.440069119E+01
 4.255547829E+02 9.144000000E+02 -3.440069165E+01
 4.229826220E+02 9.144000000E+02 -3.450444192E+01
 4.229826108E+02 9.144000000E+02 -3.450444237E+01
 4.204103848E+02 9.144000000E+02 -3.460656693E+01
 4.204103736E+02 9.144000000E+02 -3.460656738E+01
 4.178380839E+02 9.144000000E+02 -3.470707247E+01
 4.178380727E+02 9.144000000E+02 -3.470707291E+01
 4.152657200E+02 9.144000000E+02 -3.480595435E+01
 4.152657088E+02 9.144000000E+02 -3.480595478E+01
 4.126932949E+02 9.144000000E+02 -3.490323099E+01
 4.126932837E+02 9.144000000E+02 -3.490323141E+01
 4.101208079E+02 9.144000000E+02 -3.499885406E+01
 4.101207967E+02 9.144000000E+02 -3.499885447E+01
 4.075482627E+02 9.144000000E+02 -3.509290210E+01
 4.075482515E+02 9.144000000E+02 -3.509290251E+01
 4.049756560E+02 9.144000000E+02 -3.518525083E+01
 4.049756448E+02 9.144000000E+02 -3.518525123E+01
 4.024029964E+02 9.144000000E+02 -3.527611475E+01
 4.024029853E+02 9.144000000E+02 -3.527611514E+01
 3.998302732E+02 9.144000000E+02 -3.536515658E+01
 3.998302620E+02 9.144000000E+02 -3.536515697E+01
 3.972574985E+02 9.144000000E+02 -3.545270067E+01
 3.972574873E+02 9.144000000E+02 -3.545270105E+01
 3.946846665E+02 9.144000000E+02 -3.553854247E+01
 3.946846553E+02 9.144000000E+02 -3.553854284E+01
 3.921117802E+02 9.144000000E+02 -3.562274328E+01
 3.921117690E+02 9.144000000E+02 -3.562274364E+01
 3.895388440E+02 9.144000000E+02 -3.570540434E+01
 3.895388328E+02 9.144000000E+02 -3.570540470E+01
 3.869658496E+02 9.144000000E+02 -3.578623252E+01
 3.869658384E+02 9.144000000E+02 -3.578623288E+01
 3.843928072E+02 9.144000000E+02 -3.586552075E+01
 3.843927961E+02 9.144000000E+02 -3.586552109E+01
 3.818197139E+02 9.144000000E+02 -3.594313577E+01
 3.818197027E+02 9.144000000E+02 -3.594313611E+01
 3.792465682E+02 9.144000000E+02 -3.601899705E+01
 3.792465571E+02 9.144000000E+02 -3.601899738E+01
 3.766733769E+02 9.144000000E+02 -3.609329017E+01
 3.766733657E+02 9.144000000E+02 -3.609329049E+01
 3.741001351E+02 9.144000000E+02 -3.616581752E+01
 3.741001239E+02 9.144000000E+02 -3.616581784E+01
 3.715268453E+02 9.144000000E+02 -3.623662125E+01
 3.715268341E+02 9.144000000E+02 -3.623662156E+01
 3.689535119E+02 9.144000000E+02 -3.630582063E+01
 3.689535007E+02 9.144000000E+02 -3.630582093E+01
 3.663801307E+02 9.144000000E+02 -3.637322056E+01
 3.663801195E+02 9.144000000E+02 -3.637322086E+01
 3.638067041E+02 9.144000000E+02 -3.643886124E+01
 3.638066929E+02 9.144000000E+02 -3.643886153E+01
 3.612332361E+02 9.144000000E+02 -3.650286086E+01
 3.612332249E+02 9.144000000E+02 -3.650286113E+01
 3.586597239E+02 9.144000000E+02 -3.656506080E+01
 3.586597128E+02 9.144000000E+02 -3.656506107E+01
 3.560861680E+02 9.144000000E+02 -3.662542031E+01
 3.560861568E+02 9.144000000E+02 -3.662542057E+01
 3.535125731E+02 9.144000000E+02 -3.668409467E+01
 3.535125619E+02 9.144000000E+02 -3.668409493E+01
 3.509389394E+02 9.144000000E+02 -3.674103945E+01
 3.509389282E+02 9.144000000E+02 -3.674103970E+01
 3.483652638E+02 9.144000000E+02 -3.679606316E+01
 3.483652526E+02 9.144000000E+02 -3.679606339E+01
 3.457915503E+02 9.144000000E+02 -3.684928650E+01
 3.457915391E+02 9.144000000E+02 -3.684928673E+01
 3.432177996E+02 9.144000000E+02 -3.690067780E+01
 3.432177884E+02 9.144000000E+02 -3.690067802E+01
 3.406440122E+02 9.144000000E+02 -3.695019540E+01
 3.406440010E+02 9.144000000E+02 -3.695019562E+01
 3.380701901E+02 9.144000000E+02 -3.699787402E+01
 3.380701789E+02 9.144000000E+02 -3.699787423E+01
 3.354963328E+02 9.144000000E+02 -3.704361546E+01
 3.354963216E+02 9.144000000E+02 -3.704361566E+01
 3.329224433E+02 9.144000000E+02 -3.708750733E+01
 3.329224321E+02 9.144000000E+02 -3.708750752E+01
 3.303485206E+02 9.144000000E+02 -3.712940566E+01
 3.303485094E+02 9.144000000E+02 -3.712940584E+01
 3.277745679E+02 9.144000000E+02 -3.716942158E+01
 3.277745567E+02 9.144000000E+02 -3.716942176E+01
 3.252005846E+02 9.144000000E+02 -3.720741277E+01
 3.252005734E+02 9.144000000E+02 -3.720741294E+01
 3.226265734E+02 9.144000000E+02 -3.724347112E+01
 3.226265622E+02 9.144000000E+02 -3.724347128E+01
 3.200525342E+02 9.144000000E+02 -3.727746818E+01
 3.200525230E+02 9.144000000E+02 -3.727746832E+01
 3.174784696E+02 9.144000000E+02 -3.730948223E+01
 3.174784584E+02 9.144000000E+02 -3.730948237E+01
 3.149043797E+02 9.144000000E+02 -3.733939680E+01
 3.149043685E+02 9.144000000E+02 -3.733939693E+01
 3.123302670E+02 9.144000000E+02 -3.736727934E+01
 3.123302558E+02 9.144000000E+02 -3.736727946E+01
 3.097561319E+02 9.144000000E+02 -3.739301146E+01
 3.097561207E+02 9.144000000E+02 -3.739301158E+01
 3.071819769E+02 9.144000000E+02 -3.741667259E+01
 3.071819657E+02 9.144000000E+02 -3.741667270E+01
 3.046078025E+02 9.144000000E+02 -3.743811547E+01
 3.046077913E+02 9.144000000E+02 -3.743811557E+01
 3.020336114E+02 9.144000000E+02 -3.745744890E+01
 3.020336002E+02 9.144000000E+02 -3.745744899E+01
 2.994594042E+02 9.144000000E+02 -3.747449396E+01
 2.994593930E+02 9.144000000E+02 -3.747449403E+01
 2.968851835E+02 9.144000000E+02 -3.748938830E+01
 2.968851723E+02 9.144000000E+02 -3.748938836E+01
 2.943109504E+02 9.144000000E+02 -3.750193150E+01
 2.943109392E+02 9.144000000E+02 -3.750193155E+01
 2.917367074E+02 9.144000000E+02 -3.751225435E+01
 2.917366962E+02 9.144000000E+02 -3.751225439E+01
 2.891624559E+02 9.144000000E+02 -3.752019264E+01
 2.891624447E+02 9.144000000E+02 -3.752019268E+01
 2.865881984E+02 9.144000000E+02 -3.752582020E+01
 2.865881872E+02 9.144000000E+02 -3.752582022E+01
 2.840139367E+02 9.144000000E+02 -3.752902581E+01
 2.840139255E+02 9.144000000E+02 -3.752902583E+01
 2.814396731E+02 9.144000000E+02 -3.752982640E+01
 2.814396619E+02 9.144000000E+02 -3.752982641E+01
 2.788654099E+02 9.144000000E+02 -3.752817438E+01
 2.788653987E+02 9.144000000E+02 -3.752817438E+01
 2.762911496E+02 9.144000000E+02 -3.752401690E+01
 2.762911384E+02 9.144000000E+02 -3.752401688E+01
 2.737168945E+02 9.144000000E+02 -3.751736799E+01
 2.737168833E+02 9.144000000E+02 -3.751736796E+01
 2.711426475E+02 9.144000000E+02 -3.750810170E+01
 2.711426363E+02 9.144000000E+02 -3.750810166E+01
 2.685684108E+02 9.144000000E+02 -3.749630799E+01
 2.685683996E+02 9.144000000E+02 -3.749630794E+01
 2.659941881E+02 9.144000000E+02 -3.748178193E+01
 2.659941769E+02 9.144000000E+02 -3.748178187E+01
 2.634199812E+02 9.144000000E+02 -3.746467255E+01
 2.634199700E+02 9.144000000E+02 -3.746467248E+01
 2.608457946E+02 9.144000000E+02 -3.744475894E+01
 2.608457834E+02 9.144000000E+02 -3.744475885E+01
 2.582716301E+02 9.144000000E+02 -3.742215514E+01
 2.582716189E+02 9.144000000E+02 -3.742215504E+01
 2.556974923E+02 9.144000000E+02 -3.739670146E+01
 2.556974811E+02 9.144000000E+02 -3.739670135E+01
 2.531233838E+02 9.144000000E+02 -3.736843089E+01
 2.531233726E+02 9.144000000E+02 -3.736843076E+01
 2.505493088E+02 9.144000000E+02 -3.733726187E+01
 2.505492976E+02 9.144000000E+02 -3.733726173E+01
 2.479752712E+02 9.144000000E+02 -3.730314506E+01
 2.479752600E+02 9.144000000E+02 -3.730314491E+01
 2.454012743E+02 9.144000000E+02 -3.726608901E+01
 2.454012631E+02 9.144000000E+02 -3.726608885E+01
 2.428273236E+02 9.144000000E+02 -3.722594575E+01
 2.428273124E+02 9.144000000E+02 -3.722594558E+01
 2.402534215E+02 9.144000000E+02 -3.718280380E+01
 2.402534103E+02 9.144000000E+02 -3.718280362E+01
 2.376795754E+02 9.144000000E+02 -3.713643627E+01
 2.376795642E+02 9.144000000E+02 -3.713643607E+01
 2.351057864E+02 9.144000000E+02 -3.708700207E+01
 2.351057752E+02 9.144000000E+02 -3.708700185E+01
 2.325320642E+02 9.144000000E+02 -3.703420567E+01
 2.325320530E+02 9.144000000E+02 -3.703420544E+01
 2.299584088E+02 9.144000000E+02 -3.697824403E+01
 2.299583976E+02 9.144000000E+02 -3.697824379E+01
 2.273848306E+02 9.144000000E+02 -3.691884398E+01
 2.273848194E+02 9.144000000E+02 -3.691884372E+01
 2.248113305E+02 9.144000000E+02 -3.685614741E+01
 2.248113193E+02 9.144000000E+02 -3.685614713E+01
 2.222379194E+02 9.144000000E+02 -3.678990104E+01
 2.222379082E+02 9.144000000E+02 -3.678990076E+01
 2.196645987E+02 9.144000000E+02 -3.672022854E+01
 2.196645875E+02 9.144000000E+02 -3.672022823E+01
 2.170913795E+02 9.144000000E+02 -3.664690310E+01
 2.170913684E+02 9.144000000E+02 -3.664690278E+01
 2.145182643E+02 9.144000000E+02 -3.657001665E+01
 2.145182531E+02 9.144000000E+02 -3.657001632E+01
 2.119452642E+02 9.144000000E+02 -3.648937139E+01
 2.119452530E+02 9.144000000E+02 -3.648937104E+01
 2.093723821E+02 9.144000000E+02 -3.640504247E+01
 2.093723709E+02 9.144000000E+02 -3.640504210E+01
 2.067996315E+02 9.144000000E+02 -3.631679457E+01
 2.067996203E+02 9.144000000E+02 -3.631679419E+01
 2.042270140E+02 9.144000000E+02 -3.622474926E+01
 2.042270028E+02 9.144000000E+02 -3.622474886E+01
 2.016545457E+02 9.144000000E+02 -3.612862255E+01
 2.016545345E+02 9.144000000E+02 -3.612862213E+01
 1.990822265E+02 9.144000000E+02 -3.602858522E+01
 1.990822153E+02 9.144000000E+02 -3.602858478E+01
 1.965100758E+02 9.144000000E+02 -3.592430650E+01
 1.965100646E+02 9.144000000E+02 -3.592430605E+01
 1.939380925E+02 9.144000000E+02 -3.581597610E+01
 1.939380813E+02 9.144000000E+02 -3.581597563E+01
 1.913662977E+02 9.144000000E+02 -3.570326087E+01
 1.913662865E+02 9.144000000E+02 -3.570326038E+01
 1.887946930E+02 9.144000000E+02 -3.558628761E+01
 1.887946818E+02 9.144000000E+02 -3.558628710E+01
 1.862232955E+02 9.144000000E+02 -3.546484530E+01
 1.862232843E+02 9.144000000E+02 -3.546484477E+01
 1.836521143E+02 9.144000000E+02 -3.533890679E+01
 1.836521031E+02 9.144000000E+02 -3.533890624E+01
 1.810811597E+02 9.144000000E+02 -3.520842321E+01
 1.810811486E+02 9.144000000E+02 -3.520842264E+01
 1.785104511E+02 9.144000000E+02 -3.507318199E+01
 1.785104399E+02 9.144000000E+02 -3.507318140E+01
 1.759399922E+02 9.144000000E+02 -3.493327258E+01
 1.759399811E+02 9.144000000E+02 -3.493327197E+01
 1.733698081E+02 9.144000000E+02 -3.478840520E+01
 1.733697969E+02 9.144000000E+02 -3.478840457E+01
 1.707999062E+02 9.144000000E+02 -3.463861309E+01
 1.707998950E+02 9.144000000E+02 -3.463861244E+01
 1.682303000E+02 9.144000000E+02 -3.448383199E+01
 1.682302888E+02 9.144000000E+02 -3.448383132E+01
 1.656610173E+02 9.144000000E+02 -3.432376982E+01
 1.656610061E+02 9.144000000E+02 -3.432376912E+01
 1.630920615E+02 9.144000000E+02 -3.415854525E+01
 1.630920504E+02 9.144000000E+02 -3.415854453E+01
 1.605234549E+02 9.144000000E+02 -3.398797801E+01
 1.605234437E+02 9.144000000E+02 -3.398797727E+01
 1.579550985E+02 9.144000000E+02 -3.381364466E+01
 1.579550873E+02 9.144000000E+02 -3.381364390E+01
 1.553868038E+02 9.144000000E+02 -3.363817451E+01
 1.553867926E+02 9.144000000E+02 -3.363817375E+01
 1.528187905E+02 9.144000000E+02 -3.345835291E+01
 1.528187793E+02 9.144000000E+02 -3.345835212E+01
 1.502511547E+02 9.144000000E+02 -3.327295202E+01
 1.502511435E+02 9.144000000E+02 -3.327295121E+01
 1.476838706E+02 9.144000000E+02 -3.308244360E+01
 1.476838594E+02 9.144000000E+02 -3.308244277E+01
 1.451169476E+02 9.144000000E+02 -3.288677700E+01
 1.451169364E+02 9.144000000E+02 -3.288677615E+01
 1.425504386E+02 9.144000000E+02 -3.268537871E+01
 1.425504274E+02 9.144000000E+02 -3.268537783E+01
 1.399843765E+02 9.144000000E+02 -3.247799670E+01
 1.399843653E+02 9.144000000E+02 -3.247799580E+01
 1.374187222E+02 9.144000000E+02 -3.226521564E+01
 1.374187111E+02 9.144000000E+02 -3.226521471E+01
 1.348534736E+02 9.144000000E+02 -3.204709969E+01
 1.348534624E+02 9.144000000E+02 -3.204709874E+01
 1.322886996E+02 9.144000000E+02 -3.182295051E+01
 1.322886884E+02 9.144000000E+02 -3.182294953E+01
 1.297244454E+02 9.144000000E+02 -3.159238104E+01
 1.297244343E+02 9.144000000E+02 -3.159238004E+01
 1.271607101E+02 9.144000000E+02 -3.135553744E+01
 1.271606990E+02 9.144000000E+02 -3.135553641E+01
 1.245974457E+02 9.144000000E+02 -3.111299961E+01
 1.245974346E+02 9.144000000E+02 -3.111299855E+01
 1.220346923E+02 9.144000000E+02 -3.086439948E+01
 1.220346812E+02 9.144000000E+02 -3.086439840E+01
 1.194725442E+02 9.144000000E+02 -3.060889951E+01
 1.194725330E+02 9.144000000E+02 -3.060889840E+01
 1.169110392E+02 9.144000000E+02 -3.034625099E+01
 1.169110280E+02 9.144000000E+02 -3.034624984E+01
 1.143501328E+02 9.144000000E+02 -3.007695323E+01
 1.143501217E+02 9.144000000E+02 -3.007695205E+01
 1.117897600E+02 9.144000000E+02 -2.980160063E+01
 1.117897489E+02 9.144000000E+02 -2.980159943E+01
 1.092074344E+02 9.144000000E+02 -2.951668009E+01
 1.092074232E+02 9.144000000E+02 -2.951667885E+01
 1.067487241E+02 9.144000000E+02 -2.923843792E+01
 1.067487134E+02 9.144000000E+02 -2.923843671E+01
 1.044077453E+02 9.144000000E+02 -2.896672619E+01
 1.044077351E+02 9.144000000E+02 -2.896672501E+01
 1.021788801E+02 9.144000000E+02 -2.870152240E+01
 1.021788704E+02 9.144000000E+02 -2.870152125E+01
 1.000567186E+02 9.144000000E+02 -2.844340471E+01
 1.000567094E+02 9.144000000E+02 -2.844340359E+01
 9.803591929E+01 9.144000000E+02 -2.819396384E+01
 9.803591050E+01 9.144000000E+02 -2.819396276E+01
 9.611164005E+01 9.144000000E+02 -2.795290414E+01
 9.611163168E+01 9.144000000E+02 -2.795290309E+01
 9.427945542E+01 9.144000000E+02 -2.771888805E+01
 9.427944745E+01 9.144000000E+02 -2.771888703E+01
 9.253497166E+01 9.144000000E+02 -2.749168463E+01
 9.253496407E+01 9.144000000E+02 -2.749168364E+01
 9.087395840E+01 9.144000000E+02 -2.727138113E+01
 9.087395118E+01 9.144000000E+02 -2.727138017E+01
 8.929256979E+01 9.144000000E+02 -2.705692524E+01
 8.929256291E+01 9.144000000E+02 -2.705692431E+01
 8.778691701E+01 9.144000000E+02 -2.684902904E+01
 8.778691046E+01 9.144000000E+02 -2.684902814E+01
 8.778690422E+01 9.144000000E+02 -2.684902728E+01
 8.635272037E+01 9.144000000E+02 -2.665148904E+01
 8.635271414E+01 9.144000000E+02 -2.665148817E+01
 8.491882708E+01 9.144000000E+02 -2.645095153E+01
 8.491882084E+01 9.144000000E+02 -2.645095065E+01
 8.348519848E+01 9.144000000E+02 -2.624785082E+01
 8.348519225E+01 9.144000000E+02 -2.624784992E+01
 8.205167810E+01 9.144000000E+02 -2.604299064E+01
 8.205167186E+01 9.144000000E+02 -2.604298974E+01
 8.061840982E+01 9.144000000E+02 -2.583539563E+01
 8.061840358E+01 9.144000000E+02 -2.583539471E+01
 7.918543835E+01 9.144000000E+02 -2.562476011E+01
 7.918543211E+01 9.144000000E+02 -2.562475918E+01
 7.775278075E+01 9.144000000E+02 -2.541094876E+01
 7.775277452E+01 9.144000000E+02 -2.541094781E+01
 7.632047498E+01 9.144000000E+02 -2.519380925E+01
 7.632046875E+01 9.144000000E+02 -2.519380829E+01
 7.488852836E+01 9.144000000E+02 -2.497325852E+01
 7.488852214E+01 9.144000000E+02 -2.497325755E+01
 7.345695142E+01 9.144000000E+02 -2.474922881E+01
 7.345694519E+01 9.144000000E+02 -2.474922782E+01
 7.202575833E+01 9.144000000E+02 -2.452163840E+01
 7.202575211E+01 9.144000000E+02 -2.452163739E+01
 7.059495397E+01 9.144000000E+02 -2.429043452E+01
 7.059494774E+01 9.144000000E+02 -2.429043350E+01
 6.916439610E+01 9.144000000E+02 -2.405631254E+01
 6.916438987E+01 9.144000000E+02 -2.405631152E+01
 6.773370007E+01 9.144000000E+02 -2.382116227E+01
 6.773369385E+01 9.144000000E+02 -2.382116124E+01
 6.630278624E+01 9.144000000E+02 -2.358519705E+01
 6.630278001E+01 9.144000000E+02 -2.358519601E+01
 6.487196244E+01 9.144000000E+02 -2.334670016E+01
 6.487195622E+01 9.144000000E+02 -2.334669911E+01
 6.344138249E+01 9.144000000E+02 -2.310477779E+01
 6.344137626E+01 9.144000000E+02 -2.310477673E+01
 6.201109552E+01 9.144000000E+02 -2.285913727E+01
 6.201108929E+01 9.144000000E+02 -2.285913618E+01
 6.058116495E+01 9.144000000E+02 -2.260951831E+01
 6.058115873E+01 9.144000000E+02 -2.260951721E+01
 5.915159317E+01 9.144000000E+02 -2.235585648E+01
 5.915158695E+01 9.144000000E+02 -2.235585536E+01
 5.772228724E+01 9.144000000E+02 -2.209827990E+01
 5.772228103E+01 9.144000000E+02 -2.209827876E+01
 5.629323997E+01 9.144000000E+02 -2.183669412E+01
 5.629323376E+01 9.144000000E+02 -2.183669297E+01
 5.486447934E+01 9.144000000E+02 -2.157094712E+01
 5.486447312E+01 9.144000000E+02 -2.157094595E+01
 5.343586231E+01 9.144000000E+02 -2.130142751E+01
 5.343585610E+01 9.144000000E+02 -2.130142633E+01
 5.200691865E+01 9.144000000E+02 -2.103011885E+01
 5.200691243E+01 9.144000000E+02 -2.103011767E+01
 5.057705931E+01 9.144000000E+02 -2.075902352E+01
 5.057705309E+01 9.144000000E+02 -2.075902234E+01
 4.914659784E+01 9.144000000E+02 -2.048655215E+01
 4.914659161E+01 9.144000000E+02 -2.048655095E+01
 4.771598092E+01 9.144000000E+02 -2.021058238E+01
 4.771597469E+01 9.144000000E+02 -2.021058116E+01
 4.628512307E+01 9.144000000E+02 -1.993075736E+01
 4.628511684E+01 9.144000000E+02 -1.993075612E+01
 4.485397671E+01 9.144000000E+02 -1.964692479E+01
 4.485397049E+01 9.144000000E+02 -1.964692353E+01
 4.342264844E+01 9.144000000E+02 -1.935853921E+01
 4.342264222E+01 9.144000000E+02 -1.935853793E+01
 4.199120856E+01 9.144000000E+02 -1.906520161E+01
 4.199120233E+01 9.144000000E+02 -1.906520032E+01
 4.055960647E+01 9.144000000E+02 -1.876672674E+01
 4.055960024E+01 9.144000000E+02 -1.876672542E+01
 3.912770137E+01 9.144000000E+02 -1.846312664E+01
 3.912769514E+01 9.144000000E+02 -1.846312529E+01
 3.769525287E+01 9.144000000E+02 -1.815454015E+01
 3.769524664E+01 9.144000000E+02 -1.815453879E+01
 3.626193317E+01 9.144000000E+02 -1.784111979E+01
 3.626192692E+01 9.144000000E+02 -1.784111841E+01
 3.482709949E+01 9.144000000E+02 -1.752445879E+01
 3.482709323E+01 9.144000000E+02 -1.752445742E+01
 3.338926189E+01 9.144000000E+02 -1.720889781E+01
 3.338925562E+01 9.144000000E+02 -1.720889644E+01
 3.194796213E+01 9.144000000E+02 -1.689453695E+01
 3.194795585E+01 9.144000000E+02 -1.689453557E+01
 3.050402661E+01 9.144000000E+02 -1.657749651E+01
 3.050402032E+01 9.144000000E+02 -1.657749511E+01
 2.905720839E+01 9.144000000E+02 -1.625652349E+01
 2.905720208E+01 9.144000000E+02 -1.625652208E+01
 2.760701085E+01 9.144000000E+02 -1.593118935E+01
 2.760700453E+01 9.144000000E+02 -1.593118791E+01
 2.615337356E+01 9.144000000E+02 -1.560054302E+01
 2.615336722E+01 9.144000000E+02 -1.560054156E+01
 2.469617020E+01 9.144000000E+02 -1.526357571E+01
 2.469616384E+01 9.144000000E+02 -1.526357421E+01
 2.323505122E+01 9.144000000E+02 -1.491981947E+01
 2.323504484E+01 9.144000000E+02 -1.491981794E+01
 2.176851061E+01 9.144000000E+02 -1.456979296E+01
 2.176850421E+01 9.144000000E+02 -1.456979141E+01
 2.029479709E+01 9.144000000E+02 -1.421395733E+01
 2.029479063E+01 9.144000000E+02 -1.421395578E+01
 1.880977022E+01 9.144000000E+02 -1.385840979E+01
 1.880976368E+01 9.144000000E+02 -1.385840831E+01
 1.730549389E+01 9.144000000E+02 -1.351769072E+01
 1.730548725E+01 9.144000000E+02 -1.351768930E+01
 1.577921355E+01 9.144000000E+02 -1.319163513E+01
 1.577920681E+01 9.144000000E+02 -1.319163371E+01
 1.423287872E+01 9.144000000E+02 -1.286568255E+01
 1.423287190E+01 9.144000000E+02 -1.286568110E+01
 1.266475806E+01 9.144000000E+02 -1.253201873E+01
 1.266475115E+01 9.144000000E+02 -1.253201722E+01
 1.107339208E+01 9.144000000E+02 -1.218521897E+01
 1.107338486E+01 9.144000000E+02 -1.218521774E+01
 9.412616319E+00 9.144000000E+02 -1.190010812E+01
 9.412605293E+00 9.144000000E+02 -1.190011294E+01
 6.872464030E+00 9.144000000E+02 -1.301414085E+01
 6.872453667E+00 9.144000000E+02 -1.301414338E+01
 4.496482546E+00 9.144000000E+02 -1.359433386E+01
 4.496475791E+00 9.144000000E+02 -1.359432998E+01
 2.940930118E+00 9.144000000E+02 -1.270258300E+01
 2.940923215E+00 9.144000000E+02 -1.270257889E+01
 1.357246626E+00 9.144000000E+02 -1.175952116E+01
 1.357239578E+00 9.144000000E+02 -1.175951665E+01
 -2.492542468E-01 9.144000000E+02 -1.073127148E+01
 -2.492607582E-01 9.144000000E+02 -1.073126627E+01
 -1.736675820E+00 9.144000000E+02 -9.541329199E+00
 -1.736681284E+00 9.144000000E+02 -9.541323174E+00
 -2.987255652E+00 9.144000000E+02 -8.161890118E+00
 -2.987260229E+00 9.144000000E+02 -8.161883480E+00
 -4.023329606E+00 9.144000000E+02 -6.658873689E+00
 -4.023332943E+00 9.144000000E+02 -6.658866703E+00
 -4.793460923E+00 9.144000000E+02 -5.046523319E+00
 -4.793462754E+00 9.144000000E+02 -5.046515847E+00
 -5.224442754E+00 9.144000000E+02 -3.287894824E+00
 -5.224440759E+00 9.144000000E+02 -3.287885494E+00
 -4.751497661E+00 9.144000000E+02 -1.077293553E+00
 -4.751500409E+00 9.144000000E+02 -1.077287897E+00
 -5.393705284E+00 9.144000000E+02 2.503479345E-01
 -5.393721947E+00 9.144000000E+02 2.503471409E-01
 -9.250720252E+00 9.144000000E+02 6.561034845E-02
 -9.250733787E+00 9.144000000E+02 6.561334176E-02
 -1.233239460E+01 9.144000000E+02 7.462944726E-01
 -1.233240537E+01 9.144000000E+02 7.463002140E-01
 -1.478570759E+01 9.144000000E+02 2.054208376E+00
 -1.478571705E+01 9.144000000E+02 2.054215822E+00
 -1.696710797E+01 9.144000000E+02 3.771206435E+00
 -1.696711646E+01 9.144000000E+02 3.771215426E+00
 -1.891254007E+01 9.144000000E+02 5.831456624E+00
 -1.891254712E+01 9.144000000E+02 5.831466997E+00
 -2.052705706E+01 9.144000000E+02 8.205103408E+00
 -2.052705768E+01 9.144000000E+02 8.205114571E+00
 -2.070282373E+01 9.144000000E+02 1.077057548E+01
 -2.070280285E+01 9.144000000E+02 1.077058345E+01
 -1.591109702E+01 9.144000000E+02 1.260271350E+01
 -1.591108492E+01 9.144000000E+02 1.260272018E+01
 -1.311636608E+01 9.144000000E+02 1.412186827E+01
 -1.311635967E+01 9.144000000E+02 1.412187504E+01
 -1.165291763E+01 9.144000000E+02 1.566630495E+01
 -1.165291042E+01 9.144000000E+02 1.566631059E+01
 -1.000056983E+01 9.144000000E+02 1.696024888E+01
 -1.000056204E+01 9.144000000E+02 1.696025325E+01
 -8.189786952E+00 9.144000000E+02 1.797634352E+01
 -8.189779026E+00 9.144000000E+02 1.797634669E+01
 -6.300465955E+00 9.144000000E+02 1.873036970E+01
 -6.300458303E+00 9.144000000E+02 1.873037211E+01
 -4.468345838E+00 9.144000000E+02 1.930631824E+01
 -4.468338396E+00 9.144000000E+02 1.930632027E+01
 -2.743498350E+00 9.144000000E+02 1.977896704E+01
 -2.743491060E+00 9.144000000E+02 1.977896864E+01
 -1.062321816E+00 9.144000000E+02 2.014870211E+01
 -1.062314692E+00 9.144000000E+02 2.014870334E+01
 5.803235211E-01 9.144000000E+02 2.043256131E+01
 5.803304573E-01 9.144000000E+02 2.043256245E+01
 2.177136172E+00 9.144000000E+02 2.069620202E+01
 2.177143013E+00 9.144000000E+02 2.069620316E+01
 3.763059131E+00 9.144000000E+02 2.096007981E+01
 3.763066019E+00 9.144000000E+02 2.096008096E+01